 Entering Gaussian System, Link 0=g09
 Input=14.gau
 Output=14.log
 Initial command:
 /home/marie/Utilities//g09/l1.exe /tmp/g09/Gau-9297.inp -scrdir=/tmp/g09/
 Entering Link 1 = /home/marie/Utilities//g09/l1.exe PID=      9299.
  
 Copyright (c) 1988,1990,1992,1993,1995,1998,2003,2009, Gaussian, Inc.
                  All Rights Reserved.
  
 This is part of the Gaussian(R) 09 program.  It is based on
 the Gaussian(R) 03 system (copyright 2003, Gaussian, Inc.),
 the Gaussian(R) 98 system (copyright 1998, Gaussian, Inc.),
 the Gaussian(R) 94 system (copyright 1995, Gaussian, Inc.),
 the Gaussian 92(TM) system (copyright 1992, Gaussian, Inc.),
 the Gaussian 90(TM) system (copyright 1990, Gaussian, Inc.),
 the Gaussian 88(TM) system (copyright 1988, Gaussian, Inc.),
 the Gaussian 86(TM) system (copyright 1986, Carnegie Mellon
 University), and the Gaussian 82(TM) system (copyright 1983,
 Carnegie Mellon University). Gaussian is a federally registered
 trademark of Gaussian, Inc.
  
 This software contains proprietary and confidential information,
 including trade secrets, belonging to Gaussian, Inc.
  
 This software is provided under written license and may be
 used, copied, transmitted, or stored only in accord with that
 written license.
  
 The following legend is applicable only to US Government
 contracts under FAR:
  
                    RESTRICTED RIGHTS LEGEND
  
 Use, reproduction and disclosure by the US Government is
 subject to restrictions as set forth in subparagraphs (a)
 and (c) of the Commercial Computer Software - Restricted
 Rights clause in FAR 52.227-19.
  
 Gaussian, Inc.
 340 Quinnipiac St., Bldg. 40, Wallingford CT 06492
  
  
 ---------------------------------------------------------------
 Warning -- This program may not be used in any manner that
 competes with the business of Gaussian, Inc. or will provide
 assistance to any competitor of Gaussian, Inc.  The licensee
 of this program is prohibited from giving any competitor of
 Gaussian, Inc. access to this program.  By using this program,
 the user acknowledges that Gaussian, Inc. is engaged in the
 business of creating and licensing software in the field of
 computational chemistry and represents and warrants to the
 licensee that it is not a competitor of Gaussian, Inc. and that
 it will not use this program in any manner prohibited above.
 ---------------------------------------------------------------
  

 Cite this work as:
 Gaussian 09, Revision A.02,
 M. J. Frisch, G. W. Trucks, H. B. Schlegel, G. E. Scuseria, 
 M. A. Robb, J. R. Cheeseman, G. Scalmani, V. Barone, B. Mennucci, 
 G. A. Petersson, H. Nakatsuji, M. Caricato, X. Li, H. P. Hratchian, 
 A. F. Izmaylov, J. Bloino, G. Zheng, J. L. Sonnenberg, M. Hada, 
 M. Ehara, K. Toyota, R. Fukuda, J. Hasegawa, M. Ishida, T. Nakajima, 
 Y. Honda, O. Kitao, H. Nakai, T. Vreven, J. A. Montgomery, Jr., 
 J. E. Peralta, F. Ogliaro, M. Bearpark, J. J. Heyd, E. Brothers, 
 K. N. Kudin, V. N. Staroverov, R. Kobayashi, J. Normand, 
 K. Raghavachari, A. Rendell, J. C. Burant, S. S. Iyengar, J. Tomasi, 
 M. Cossi, N. Rega, J. M. Millam, M. Klene, J. E. Knox, J. B. Cross, 
 V. Bakken, C. Adamo, J. Jaramillo, R. Gomperts, R. E. Stratmann, 
 O. Yazyev, A. J. Austin, R. Cammi, C. Pomelli, J. W. Ochterski, 
 R. L. Martin, K. Morokuma, V. G. Zakrzewski, G. A. Voth, 
 P. Salvador, J. J. Dannenberg, S. Dapprich, A. D. Daniels, 
 O. Farkas, J. B. Foresman, J. V. Ortiz, J. Cioslowski, 
 and D. J. Fox, Gaussian, Inc., Wallingford CT, 2009.
 
 ******************************************
 Gaussian 09:  EM64L-G09RevA.02 11-Jun-2009
                 6-Dec-2019 
 ******************************************
 %chk=conf14
 ------------------------------------------------------------
 #HF/6-31G* SCF=tight Test Pop=MK iop(6/33=2) iop(6/42=6) opt
 ------------------------------------------------------------
 1/18=20,19=15,38=1/1,3;
 2/9=110,12=2,17=6,18=5,40=1/2;
 3/5=1,6=6,7=1,11=9,16=1,25=1,30=1,71=1/1,2,3;
 4//1;
 5/5=2,32=2,38=5/2;
 6/7=2,8=2,9=2,10=2,15=8,20=1,28=1,33=2,42=6/1,2;
 7//1,2,3,16;
 1/18=20,19=15/3(2);
 2/9=110/2;
 99//99;
 2/9=110/2;
 3/5=1,6=6,7=1,11=9,16=1,25=1,30=1,71=1/1,2,3;
 4/5=5,16=3/1;
 5/5=2,32=2,38=5/2;
 7//1,2,3,16;
 1/18=20,19=15/3(-5);
 2/9=110/2;
 6/7=2,8=2,9=2,10=2,15=8,19=2,20=1,28=1,33=2,42=6/1,2;
 99/9=1/99;
 ---------------------
 remark line goes here
 ---------------------
 Symbolic Z-matrix:
 Charge =  0 Multiplicity = 1
 C                     7.494    -2.59      0.106 
 N                     6.289    -1.815     0.273 
 C                     6.34     -0.435     0.235 
 O                     7.415     0.172     0.224 
 C                     4.975     0.322     0.373 
 C                     4.629     0.315     1.875 
 C                     3.823    -0.344    -0.426 
 C                     2.518     0.467    -0.474 
 C                     1.448    -0.173    -1.366 
 C                     0.978    -1.51     -0.867 
 C                    -0.112    -1.758    -0.122 
 C                    -1.083    -0.75      0.424 
 C                    -2.454    -0.882    -0.247 
 C                    -3.435     0.167     0.293 
 C                    -4.897     0.07     -0.238 
 C                    -4.932     0.12     -1.772 
 N                    -5.625     1.239     0.337 
 C                    -6.966     1.462     0.102 
 C                    -7.443     2.83      0.512 
 O                    -7.724     0.628    -0.377 
 C                    -5.497    -1.275     0.283 
 O                    -5.451    -2.322    -0.359 
 N                    -5.905    -1.233     1.607 
 C                    -6.575    -2.368     2.188 
 N                     5.252     1.721    -0.024 
 C                     5.427     2.1      -1.34 
 C                     5.976     3.494    -1.496 
 O                     5.175     1.395    -2.31 
 H                     8.29     -2.194     0.743 
 H                     7.281    -3.626     0.379 
 H                     7.805    -2.537    -0.941 
 H                     5.419    -2.274     0.045 
 H                     3.779     0.97      2.096 
 H                     5.473     0.674     2.476 
 H                     4.387    -0.694     2.227 
 H                     3.596    -1.319     0.025 
 H                     4.151    -0.574    -1.446 
 H                     2.713     1.473    -0.861 
 H                     2.116     0.591     0.538 
 H                     1.84     -0.3      -2.383 
 H                     0.604     0.519    -1.463 
 H                     1.583    -2.362    -1.176 
 H                    -0.327    -2.795     0.134 
 H                    -1.182    -0.92      1.503 
 H                    -0.709     0.273     0.309 
 H                    -2.842    -1.892    -0.074 
 H                    -2.335    -0.759    -1.33 
 H                    -3.445     0.107     1.39 
 H                    -3.033     1.162     0.054 
 H                    -5.957     0.082    -2.155 
 H                    -4.407    -0.728    -2.224 
 H                    -4.476     1.043    -2.146 
 H                    -5.067     2.074     0.464 
 H                    -6.719     3.332     1.161 
 H                    -7.602     3.437    -0.383 
 H                    -8.382     2.731     1.064 
 H                    -6.176    -0.312     1.929 
 H                    -5.999    -3.278     2.002 
 H                    -6.673    -2.201     3.263 
 H                    -7.565    -2.464     1.734 
 H                     5.889     2.194     0.608 
 H                     5.825     4.087    -0.589 
 H                     5.458     3.994    -2.319 
 H                     7.045     3.435    -1.713 
 

 GradGradGradGradGradGradGradGradGradGradGradGradGradGradGradGradGradGrad
 Berny optimization.
 Initialization pass.
                           ----------------------------
                           !    Initial Parameters    !
                           ! (Angstroms and Degrees)  !
 --------------------------                            --------------------------
 ! Name  Definition              Value          Derivative Info.                !
 --------------------------------------------------------------------------------
 ! R1    R(1,2)                  1.4424         estimate D2E/DX2                !
 ! R2    R(1,29)                 1.0937         estimate D2E/DX2                !
 ! R3    R(1,30)                 1.0923         estimate D2E/DX2                !
 ! R4    R(1,31)                 1.0935         estimate D2E/DX2                !
 ! R5    R(2,3)                  1.3815         estimate D2E/DX2                !
 ! R6    R(2,32)                 1.0097         estimate D2E/DX2                !
 ! R7    R(3,4)                  1.2346         estimate D2E/DX2                !
 ! R8    R(3,5)                  1.5669         estimate D2E/DX2                !
 ! R9    R(5,6)                  1.5414         estimate D2E/DX2                !
 ! R10   R(5,7)                  1.5521         estimate D2E/DX2                !
 ! R11   R(5,25)                 1.4804         estimate D2E/DX2                !
 ! R12   R(6,33)                 1.0956         estimate D2E/DX2                !
 ! R13   R(6,34)                 1.0965         estimate D2E/DX2                !
 ! R14   R(6,35)                 1.0957         estimate D2E/DX2                !
 ! R15   R(7,8)                  1.5372         estimate D2E/DX2                !
 ! R16   R(7,36)                 1.098          estimate D2E/DX2                !
 ! R17   R(7,37)                 1.0958         estimate D2E/DX2                !
 ! R18   R(8,9)                  1.533          estimate D2E/DX2                !
 ! R19   R(8,38)                 1.0954         estimate D2E/DX2                !
 ! R20   R(8,39)                 1.096          estimate D2E/DX2                !
 ! R21   R(9,10)                 1.5025         estimate D2E/DX2                !
 ! R22   R(9,40)                 1.0973         estimate D2E/DX2                !
 ! R23   R(9,41)                 1.0957         estimate D2E/DX2                !
 ! R24   R(10,11)                1.3434         estimate D2E/DX2                !
 ! R25   R(10,42)                1.0897         estimate D2E/DX2                !
 ! R26   R(11,12)                1.5023         estimate D2E/DX2                !
 ! R27   R(11,43)                1.0896         estimate D2E/DX2                !
 ! R28   R(12,13)                1.5321         estimate D2E/DX2                !
 ! R29   R(12,44)                1.0968         estimate D2E/DX2                !
 ! R30   R(12,45)                1.0953         estimate D2E/DX2                !
 ! R31   R(13,14)                1.5344         estimate D2E/DX2                !
 ! R32   R(13,46)                1.0957         estimate D2E/DX2                !
 ! R33   R(13,47)                1.0964         estimate D2E/DX2                !
 ! R34   R(14,15)                1.5585         estimate D2E/DX2                !
 ! R35   R(14,48)                1.0987         estimate D2E/DX2                !
 ! R36   R(14,49)                1.0994         estimate D2E/DX2                !
 ! R37   R(15,16)                1.5352         estimate D2E/DX2                !
 ! R38   R(15,17)                1.4924         estimate D2E/DX2                !
 ! R39   R(15,21)                1.5622         estimate D2E/DX2                !
 ! R40   R(16,50)                1.0949         estimate D2E/DX2                !
 ! R41   R(16,51)                1.095          estimate D2E/DX2                !
 ! R42   R(16,52)                1.0953         estimate D2E/DX2                !
 ! R43   R(17,18)                1.3796         estimate D2E/DX2                !
 ! R44   R(17,53)                1.0123         estimate D2E/DX2                !
 ! R45   R(18,19)                1.5057         estimate D2E/DX2                !
 ! R46   R(18,20)                1.2246         estimate D2E/DX2                !
 ! R47   R(19,54)                1.0942         estimate D2E/DX2                !
 ! R48   R(19,55)                1.093          estimate D2E/DX2                !
 ! R49   R(19,56)                1.0937         estimate D2E/DX2                !
 ! R50   R(21,22)                1.229          estimate D2E/DX2                !
 ! R51   R(21,23)                1.3861         estimate D2E/DX2                !
 ! R52   R(23,24)                1.4404         estimate D2E/DX2                !
 ! R53   R(23,57)                1.0126         estimate D2E/DX2                !
 ! R54   R(24,58)                1.0929         estimate D2E/DX2                !
 ! R55   R(24,59)                1.0923         estimate D2E/DX2                !
 ! R56   R(24,60)                1.0934         estimate D2E/DX2                !
 ! R57   R(25,26)                1.3806         estimate D2E/DX2                !
 ! R58   R(25,61)                1.0144         estimate D2E/DX2                !
 ! R59   R(26,27)                1.5063         estimate D2E/DX2                !
 ! R60   R(26,28)                1.2253         estimate D2E/DX2                !
 ! R61   R(27,62)                1.0941         estimate D2E/DX2                !
 ! R62   R(27,63)                1.0935         estimate D2E/DX2                !
 ! R63   R(27,64)                1.0924         estimate D2E/DX2                !
 ! A1    A(2,1,29)             110.2452         estimate D2E/DX2                !
 ! A2    A(2,1,30)             108.5269         estimate D2E/DX2                !
 ! A3    A(2,1,31)             108.8088         estimate D2E/DX2                !
 ! A4    A(29,1,30)            109.8619         estimate D2E/DX2                !
 ! A5    A(29,1,31)            109.4579         estimate D2E/DX2                !
 ! A6    A(30,1,31)            109.9209         estimate D2E/DX2                !
 ! A7    A(1,2,3)              120.1788         estimate D2E/DX2                !
 ! A8    A(1,2,32)             116.7061         estimate D2E/DX2                !
 ! A9    A(3,2,32)             118.6652         estimate D2E/DX2                !
 ! A10   A(2,3,4)              121.5695         estimate D2E/DX2                !
 ! A11   A(2,3,5)              116.6162         estimate D2E/DX2                !
 ! A12   A(4,3,5)              121.4517         estimate D2E/DX2                !
 ! A13   A(3,5,6)              106.2109         estimate D2E/DX2                !
 ! A14   A(3,5,7)              113.1989         estimate D2E/DX2                !
 ! A15   A(3,5,25)             105.6601         estimate D2E/DX2                !
 ! A16   A(6,5,7)              109.4558         estimate D2E/DX2                !
 ! A17   A(6,5,25)             107.9159         estimate D2E/DX2                !
 ! A18   A(7,5,25)             113.9745         estimate D2E/DX2                !
 ! A19   A(5,6,33)             111.5926         estimate D2E/DX2                !
 ! A20   A(5,6,34)             111.0895         estimate D2E/DX2                !
 ! A21   A(5,6,35)             111.5194         estimate D2E/DX2                !
 ! A22   A(33,6,34)            106.9093         estimate D2E/DX2                !
 ! A23   A(33,6,35)            108.3235         estimate D2E/DX2                !
 ! A24   A(34,6,35)            107.182          estimate D2E/DX2                !
 ! A25   A(5,7,8)              114.8211         estimate D2E/DX2                !
 ! A26   A(5,7,36)             108.8463         estimate D2E/DX2                !
 ! A27   A(5,7,37)             110.3074         estimate D2E/DX2                !
 ! A28   A(8,7,36)             107.8062         estimate D2E/DX2                !
 ! A29   A(8,7,37)             109.6188         estimate D2E/DX2                !
 ! A30   A(36,7,37)            104.9414         estimate D2E/DX2                !
 ! A31   A(7,8,9)              112.9823         estimate D2E/DX2                !
 ! A32   A(7,8,38)             110.1473         estimate D2E/DX2                !
 ! A33   A(7,8,39)             110.014          estimate D2E/DX2                !
 ! A34   A(9,8,38)             107.5835         estimate D2E/DX2                !
 ! A35   A(9,8,39)             109.1778         estimate D2E/DX2                !
 ! A36   A(38,8,39)            106.716          estimate D2E/DX2                !
 ! A37   A(8,9,10)             113.3648         estimate D2E/DX2                !
 ! A38   A(8,9,40)             109.7703         estimate D2E/DX2                !
 ! A39   A(8,9,41)             108.9944         estimate D2E/DX2                !
 ! A40   A(10,9,40)            108.4556         estimate D2E/DX2                !
 ! A41   A(10,9,41)            110.514          estimate D2E/DX2                !
 ! A42   A(40,9,41)            105.4392         estimate D2E/DX2                !
 ! A43   A(9,10,11)            127.0332         estimate D2E/DX2                !
 ! A44   A(9,10,42)            115.3347         estimate D2E/DX2                !
 ! A45   A(11,10,42)           117.6074         estimate D2E/DX2                !
 ! A46   A(10,11,12)           127.0213         estimate D2E/DX2                !
 ! A47   A(10,11,43)           117.7827         estimate D2E/DX2                !
 ! A48   A(12,11,43)           115.1925         estimate D2E/DX2                !
 ! A49   A(11,12,13)           111.1856         estimate D2E/DX2                !
 ! A50   A(11,12,44)           108.1727         estimate D2E/DX2                !
 ! A51   A(11,12,45)           111.5813         estimate D2E/DX2                !
 ! A52   A(13,12,44)           109.678          estimate D2E/DX2                !
 ! A53   A(13,12,45)           109.8799         estimate D2E/DX2                !
 ! A54   A(44,12,45)           106.1937         estimate D2E/DX2                !
 ! A55   A(12,13,14)           111.0439         estimate D2E/DX2                !
 ! A56   A(12,13,46)           109.0955         estimate D2E/DX2                !
 ! A57   A(12,13,47)           109.0146         estimate D2E/DX2                !
 ! A58   A(14,13,46)           110.3784         estimate D2E/DX2                !
 ! A59   A(14,13,47)           109.8959         estimate D2E/DX2                !
 ! A60   A(46,13,47)           107.3251         estimate D2E/DX2                !
 ! A61   A(13,14,15)           115.9321         estimate D2E/DX2                !
 ! A62   A(13,14,48)           108.6554         estimate D2E/DX2                !
 ! A63   A(13,14,49)           107.9655         estimate D2E/DX2                !
 ! A64   A(15,14,48)           109.1632         estimate D2E/DX2                !
 ! A65   A(15,14,49)           108.9821         estimate D2E/DX2                !
 ! A66   A(48,14,49)           105.6525         estimate D2E/DX2                !
 ! A67   A(14,15,16)           111.0885         estimate D2E/DX2                !
 ! A68   A(14,15,17)           106.1163         estimate D2E/DX2                !
 ! A69   A(14,15,21)           107.473          estimate D2E/DX2                !
 ! A70   A(16,15,17)           110.3868         estimate D2E/DX2                !
 ! A71   A(16,15,21)           110.6418         estimate D2E/DX2                !
 ! A72   A(17,15,21)           111.0115         estimate D2E/DX2                !
 ! A73   A(15,16,50)           111.7            estimate D2E/DX2                !
 ! A74   A(15,16,51)           112.105          estimate D2E/DX2                !
 ! A75   A(15,16,52)           111.047          estimate D2E/DX2                !
 ! A76   A(50,16,51)           106.1156         estimate D2E/DX2                !
 ! A77   A(50,16,52)           107.4304         estimate D2E/DX2                !
 ! A78   A(51,16,52)           108.1822         estimate D2E/DX2                !
 ! A79   A(15,17,18)           122.3548         estimate D2E/DX2                !
 ! A80   A(15,17,53)           115.187          estimate D2E/DX2                !
 ! A81   A(18,17,53)           115.078          estimate D2E/DX2                !
 ! A82   A(17,18,19)           114.1057         estimate D2E/DX2                !
 ! A83   A(17,18,20)           123.9333         estimate D2E/DX2                !
 ! A84   A(19,18,20)           121.9514         estimate D2E/DX2                !
 ! A85   A(18,19,54)           111.636          estimate D2E/DX2                !
 ! A86   A(18,19,55)           109.1273         estimate D2E/DX2                !
 ! A87   A(18,19,56)           109.0975         estimate D2E/DX2                !
 ! A88   A(54,19,55)           109.094          estimate D2E/DX2                !
 ! A89   A(54,19,56)           108.0732         estimate D2E/DX2                !
 ! A90   A(55,19,56)           109.7936         estimate D2E/DX2                !
 ! A91   A(15,21,22)           123.0157         estimate D2E/DX2                !
 ! A92   A(15,21,23)           113.9246         estimate D2E/DX2                !
 ! A93   A(22,21,23)           122.3985         estimate D2E/DX2                !
 ! A94   A(21,23,24)           119.8907         estimate D2E/DX2                !
 ! A95   A(21,23,57)           114.2104         estimate D2E/DX2                !
 ! A96   A(24,23,57)           117.6422         estimate D2E/DX2                !
 ! A97   A(23,24,58)           110.0175         estimate D2E/DX2                !
 ! A98   A(23,24,59)           108.5564         estimate D2E/DX2                !
 ! A99   A(23,24,60)           108.8372         estimate D2E/DX2                !
 ! A100  A(58,24,59)           110.0034         estimate D2E/DX2                !
 ! A101  A(58,24,60)           109.4773         estimate D2E/DX2                !
 ! A102  A(59,24,60)           109.9283         estimate D2E/DX2                !
 ! A103  A(5,25,26)            122.5993         estimate D2E/DX2                !
 ! A104  A(5,25,61)            113.0222         estimate D2E/DX2                !
 ! A105  A(26,25,61)           112.7235         estimate D2E/DX2                !
 ! A106  A(25,26,27)           113.5132         estimate D2E/DX2                !
 ! A107  A(25,26,28)           124.7892         estimate D2E/DX2                !
 ! A108  A(27,26,28)           121.6971         estimate D2E/DX2                !
 ! A109  A(26,27,62)           111.4337         estimate D2E/DX2                !
 ! A110  A(26,27,63)           109.1754         estimate D2E/DX2                !
 ! A111  A(26,27,64)           109.102          estimate D2E/DX2                !
 ! A112  A(62,27,63)           108.1029         estimate D2E/DX2                !
 ! A113  A(62,27,64)           109.2081         estimate D2E/DX2                !
 ! A114  A(63,27,64)           109.8016         estimate D2E/DX2                !
 ! D1    D(29,1,2,3)            47.639          estimate D2E/DX2                !
 ! D2    D(29,1,2,32)         -156.3369         estimate D2E/DX2                !
 ! D3    D(30,1,2,3)           168.0048         estimate D2E/DX2                !
 ! D4    D(30,1,2,32)          -35.9711         estimate D2E/DX2                !
 ! D5    D(31,1,2,3)           -72.4073         estimate D2E/DX2                !
 ! D6    D(31,1,2,32)           83.6168         estimate D2E/DX2                !
 ! D7    D(1,2,3,4)             -8.9954         estimate D2E/DX2                !
 ! D8    D(1,2,3,5)            177.8239         estimate D2E/DX2                !
 ! D9    D(32,2,3,4)          -164.5573         estimate D2E/DX2                !
 ! D10   D(32,2,3,5)            22.262          estimate D2E/DX2                !
 ! D11   D(2,3,5,6)             78.9391         estimate D2E/DX2                !
 ! D12   D(2,3,5,7)            -41.1925         estimate D2E/DX2                !
 ! D13   D(2,3,5,25)          -166.5912         estimate D2E/DX2                !
 ! D14   D(4,3,5,6)            -94.2502         estimate D2E/DX2                !
 ! D15   D(4,3,5,7)            145.6182         estimate D2E/DX2                !
 ! D16   D(4,3,5,25)            20.2195         estimate D2E/DX2                !
 ! D17   D(3,5,6,33)           170.1459         estimate D2E/DX2                !
 ! D18   D(3,5,6,34)            50.9432         estimate D2E/DX2                !
 ! D19   D(3,5,6,35)           -68.5554         estimate D2E/DX2                !
 ! D20   D(7,5,6,33)           -67.3214         estimate D2E/DX2                !
 ! D21   D(7,5,6,34)           173.4759         estimate D2E/DX2                !
 ! D22   D(7,5,6,35)            53.9773         estimate D2E/DX2                !
 ! D23   D(25,5,6,33)           57.2271         estimate D2E/DX2                !
 ! D24   D(25,5,6,34)          -61.9756         estimate D2E/DX2                !
 ! D25   D(25,5,6,35)          178.5258         estimate D2E/DX2                !
 ! D26   D(3,5,7,8)           -172.0838         estimate D2E/DX2                !
 ! D27   D(3,5,7,36)            66.9937         estimate D2E/DX2                !
 ! D28   D(3,5,7,37)           -47.6393         estimate D2E/DX2                !
 ! D29   D(6,5,7,8)             69.653          estimate D2E/DX2                !
 ! D30   D(6,5,7,36)           -51.2695         estimate D2E/DX2                !
 ! D31   D(6,5,7,37)          -165.9025         estimate D2E/DX2                !
 ! D32   D(25,5,7,8)           -51.2873         estimate D2E/DX2                !
 ! D33   D(25,5,7,36)         -172.2097         estimate D2E/DX2                !
 ! D34   D(25,5,7,37)           73.1573         estimate D2E/DX2                !
 ! D35   D(3,5,25,26)           75.2029         estimate D2E/DX2                !
 ! D36   D(3,5,25,61)          -65.1462         estimate D2E/DX2                !
 ! D37   D(6,5,25,26)         -171.5096         estimate D2E/DX2                !
 ! D38   D(6,5,25,61)           48.1413         estimate D2E/DX2                !
 ! D39   D(7,5,25,26)          -49.715          estimate D2E/DX2                !
 ! D40   D(7,5,25,61)          169.9358         estimate D2E/DX2                !
 ! D41   D(5,7,8,9)            175.3242         estimate D2E/DX2                !
 ! D42   D(5,7,8,38)            54.9843         estimate D2E/DX2                !
 ! D43   D(5,7,8,39)           -62.3836         estimate D2E/DX2                !
 ! D44   D(36,7,8,9)           -63.1847         estimate D2E/DX2                !
 ! D45   D(36,7,8,38)          176.4755         estimate D2E/DX2                !
 ! D46   D(36,7,8,39)           59.1076         estimate D2E/DX2                !
 ! D47   D(37,7,8,9)            50.5174         estimate D2E/DX2                !
 ! D48   D(37,7,8,38)          -69.8225         estimate D2E/DX2                !
 ! D49   D(37,7,8,39)          172.8096         estimate D2E/DX2                !
 ! D50   D(7,8,9,10)            64.1024         estimate D2E/DX2                !
 ! D51   D(7,8,9,40)           -57.3457         estimate D2E/DX2                !
 ! D52   D(7,8,9,41)          -172.3639         estimate D2E/DX2                !
 ! D53   D(38,8,9,10)         -174.1034         estimate D2E/DX2                !
 ! D54   D(38,8,9,40)           64.4485         estimate D2E/DX2                !
 ! D55   D(38,8,9,41)          -50.5697         estimate D2E/DX2                !
 ! D56   D(39,8,9,10)          -58.6566         estimate D2E/DX2                !
 ! D57   D(39,8,9,40)          179.8952         estimate D2E/DX2                !
 ! D58   D(39,8,9,41)           64.8771         estimate D2E/DX2                !
 ! D59   D(8,9,10,11)           96.4135         estimate D2E/DX2                !
 ! D60   D(8,9,10,42)          -85.451          estimate D2E/DX2                !
 ! D61   D(40,9,10,11)        -141.4039         estimate D2E/DX2                !
 ! D62   D(40,9,10,42)          36.7315         estimate D2E/DX2                !
 ! D63   D(41,9,10,11)         -26.2835         estimate D2E/DX2                !
 ! D64   D(41,9,10,42)         151.852          estimate D2E/DX2                !
 ! D65   D(9,10,11,12)          -2.3829         estimate D2E/DX2                !
 ! D66   D(9,10,11,43)         178.3309         estimate D2E/DX2                !
 ! D67   D(42,10,11,12)        179.5189         estimate D2E/DX2                !
 ! D68   D(42,10,11,43)          0.2327         estimate D2E/DX2                !
 ! D69   D(10,11,12,13)        112.2184         estimate D2E/DX2                !
 ! D70   D(10,11,12,44)       -127.2957         estimate D2E/DX2                !
 ! D71   D(10,11,12,45)        -10.8406         estimate D2E/DX2                !
 ! D72   D(43,11,12,13)        -68.4795         estimate D2E/DX2                !
 ! D73   D(43,11,12,44)         52.0065         estimate D2E/DX2                !
 ! D74   D(43,11,12,45)        168.4616         estimate D2E/DX2                !
 ! D75   D(11,12,13,14)       -178.8735         estimate D2E/DX2                !
 ! D76   D(11,12,13,46)         59.2544         estimate D2E/DX2                !
 ! D77   D(11,12,13,47)        -57.6577         estimate D2E/DX2                !
 ! D78   D(44,12,13,14)         61.533          estimate D2E/DX2                !
 ! D79   D(44,12,13,46)        -60.339          estimate D2E/DX2                !
 ! D80   D(44,12,13,47)       -177.2511         estimate D2E/DX2                !
 ! D81   D(45,12,13,14)        -54.8433         estimate D2E/DX2                !
 ! D82   D(45,12,13,46)       -176.7154         estimate D2E/DX2                !
 ! D83   D(45,12,13,47)         66.3725         estimate D2E/DX2                !
 ! D84   D(12,13,14,15)       -175.7462         estimate D2E/DX2                !
 ! D85   D(12,13,14,48)        -52.4188         estimate D2E/DX2                !
 ! D86   D(12,13,14,49)         61.7128         estimate D2E/DX2                !
 ! D87   D(46,13,14,15)        -54.6254         estimate D2E/DX2                !
 ! D88   D(46,13,14,48)         68.7021         estimate D2E/DX2                !
 ! D89   D(46,13,14,49)       -177.1664         estimate D2E/DX2                !
 ! D90   D(47,13,14,15)         63.557          estimate D2E/DX2                !
 ! D91   D(47,13,14,48)       -173.1155         estimate D2E/DX2                !
 ! D92   D(47,13,14,49)        -58.984          estimate D2E/DX2                !
 ! D93   D(13,14,15,16)        -55.7567         estimate D2E/DX2                !
 ! D94   D(13,14,15,17)       -175.7609         estimate D2E/DX2                !
 ! D95   D(13,14,15,21)         65.4079         estimate D2E/DX2                !
 ! D96   D(48,14,15,16)       -178.8183         estimate D2E/DX2                !
 ! D97   D(48,14,15,17)         61.1776         estimate D2E/DX2                !
 ! D98   D(48,14,15,21)        -57.6537         estimate D2E/DX2                !
 ! D99   D(49,14,15,16)         66.2464         estimate D2E/DX2                !
 ! D100  D(49,14,15,17)        -53.7577         estimate D2E/DX2                !
 ! D101  D(49,14,15,21)       -172.589          estimate D2E/DX2                !
 ! D102  D(14,15,16,50)       -178.3367         estimate D2E/DX2                !
 ! D103  D(14,15,16,51)         62.7111         estimate D2E/DX2                !
 ! D104  D(14,15,16,52)        -58.431          estimate D2E/DX2                !
 ! D105  D(17,15,16,50)        -60.9036         estimate D2E/DX2                !
 ! D106  D(17,15,16,51)       -179.8558         estimate D2E/DX2                !
 ! D107  D(17,15,16,52)         59.002          estimate D2E/DX2                !
 ! D108  D(21,15,16,50)         62.378          estimate D2E/DX2                !
 ! D109  D(21,15,16,51)        -56.5742         estimate D2E/DX2                !
 ! D110  D(21,15,16,52)       -177.7163         estimate D2E/DX2                !
 ! D111  D(14,15,17,18)       -178.5538         estimate D2E/DX2                !
 ! D112  D(14,15,17,53)         32.9729         estimate D2E/DX2                !
 ! D113  D(16,15,17,18)         60.9861         estimate D2E/DX2                !
 ! D114  D(16,15,17,53)        -87.4872         estimate D2E/DX2                !
 ! D115  D(21,15,17,18)        -62.0804         estimate D2E/DX2                !
 ! D116  D(21,15,17,53)        149.4463         estimate D2E/DX2                !
 ! D117  D(14,15,21,22)        -92.3139         estimate D2E/DX2                !
 ! D118  D(14,15,21,23)         78.5573         estimate D2E/DX2                !
 ! D119  D(16,15,21,22)         29.1307         estimate D2E/DX2                !
 ! D120  D(16,15,21,23)       -159.9981         estimate D2E/DX2                !
 ! D121  D(17,15,21,22)        152.0502         estimate D2E/DX2                !
 ! D122  D(17,15,21,23)        -37.0786         estimate D2E/DX2                !
 ! D123  D(15,17,18,19)       -167.4229         estimate D2E/DX2                !
 ! D124  D(15,17,18,20)         13.685          estimate D2E/DX2                !
 ! D125  D(53,17,18,19)        -18.9182         estimate D2E/DX2                !
 ! D126  D(53,17,18,20)        162.1896         estimate D2E/DX2                !
 ! D127  D(17,18,19,54)        -14.7287         estimate D2E/DX2                !
 ! D128  D(17,18,19,55)        105.938          estimate D2E/DX2                !
 ! D129  D(17,18,19,56)       -134.1034         estimate D2E/DX2                !
 ! D130  D(20,18,19,54)        164.188          estimate D2E/DX2                !
 ! D131  D(20,18,19,55)        -75.1453         estimate D2E/DX2                !
 ! D132  D(20,18,19,56)         44.8133         estimate D2E/DX2                !
 ! D133  D(15,21,23,24)        175.0346         estimate D2E/DX2                !
 ! D134  D(15,21,23,57)         27.3419         estimate D2E/DX2                !
 ! D135  D(22,21,23,24)        -14.0307         estimate D2E/DX2                !
 ! D136  D(22,21,23,57)       -161.7235         estimate D2E/DX2                !
 ! D137  D(21,23,24,58)         50.9212         estimate D2E/DX2                !
 ! D138  D(21,23,24,59)        171.341          estimate D2E/DX2                !
 ! D139  D(21,23,24,60)        -69.0285         estimate D2E/DX2                !
 ! D140  D(57,23,24,58)       -162.4634         estimate D2E/DX2                !
 ! D141  D(57,23,24,59)        -42.0436         estimate D2E/DX2                !
 ! D142  D(57,23,24,60)         77.5868         estimate D2E/DX2                !
 ! D143  D(5,25,26,27)        -167.9865         estimate D2E/DX2                !
 ! D144  D(5,25,26,28)          11.7775         estimate D2E/DX2                !
 ! D145  D(61,25,26,27)        -27.5331         estimate D2E/DX2                !
 ! D146  D(61,25,26,28)        152.2308         estimate D2E/DX2                !
 ! D147  D(25,26,27,62)        -19.4837         estimate D2E/DX2                !
 ! D148  D(25,26,27,63)       -138.8203         estimate D2E/DX2                !
 ! D149  D(25,26,27,64)        101.1799         estimate D2E/DX2                !
 ! D150  D(28,26,27,62)        160.7442         estimate D2E/DX2                !
 ! D151  D(28,26,27,63)         41.4076         estimate D2E/DX2                !
 ! D152  D(28,26,27,64)        -78.5923         estimate D2E/DX2                !
 --------------------------------------------------------------------------------
 Trust Radius=3.00D-01 FncErr=1.00D-07 GrdErr=1.00D-07
 Number of steps in this run= 339 maximum allowed number of steps= 384.
 GradGradGradGradGradGradGradGradGradGradGradGradGradGradGradGradGradGrad

 Stoichiometry    C20H36N4O4
 Framework group  C1[X(C20H36N4O4)]
 Deg. of freedom   186
 Full point group                 C1      NOp   1
 Largest Abelian subgroup         C1      NOp   1
 Largest concise Abelian subgroup C1      NOp   1
                         Standard orientation:                         
 ---------------------------------------------------------------------
 Center     Atomic      Atomic             Coordinates (Angstroms)
 Number     Number       Type             X           Y           Z
 ---------------------------------------------------------------------
      1          6           0        7.428555   -2.775836   -0.309123
      2          7           0        6.234978   -2.043824    0.037393
      3          6           0        6.319589   -0.719951    0.422939
      4          8           0        7.407533   -0.178234    0.639998
      5          6           0        4.967263    0.009605    0.729989
      6          6           0        4.547621   -0.439007    2.143643
      7          6           0        3.840975   -0.340236   -0.279044
      8          6           0        2.558968    0.494843   -0.130210
      9          6           0        1.519740    0.194891   -1.216579
     10          6           0        0.995030   -1.212124   -1.167003
     11          6           0       -0.135774   -1.633606   -0.576864
     12          6           0       -1.108996   -0.803075    0.210587
     13          6           0       -2.447955   -0.675023   -0.522965
     14          6           0       -3.429921    0.196740    0.270845
     15          6           0       -4.865835    0.319101   -0.322446
     16          6           0       -4.824061    0.832420   -1.768696
     17          7           0       -5.594133    1.285209    0.551275
     18          6           0       -6.916430    1.618244    0.341865
     19          6           0       -7.381384    2.814556    1.129082
     20          8           0       -7.668938    0.996982   -0.397949
     21          6           0       -5.521619   -1.097393   -0.259555
     22          8           0       -5.468198   -1.901847   -1.187180
     23          7           0       -5.993271   -1.443162    0.997105
     24          6           0       -6.717067   -2.675242    1.178172
     25          7           0        5.295662    1.451913    0.788644
     26          6           0        5.543970    2.204805   -0.341674
     27          6           0        6.131979    3.559347   -0.044294
     28          8           0        5.323875    1.836360   -1.489382
     29          1           0        8.201125   -2.620942    0.449391
     30          1           0        7.178538   -3.837261   -0.372852
     31          1           0        7.791894   -2.419872   -1.277118
     32          1           0        5.366916   -2.379807   -0.353950
     33          1           0        3.703093    0.149266    2.519240
     34          1           0        5.369041   -0.310224    2.858557
     35          1           0        4.265378   -1.497565    2.162160
     36          1           0        3.569616   -1.396939   -0.155360
     37          1           0        4.213435   -0.262590   -1.306725
     38          1           0        2.795936    1.562875   -0.184829
     39          1           0        2.110568    0.321402    0.854665
     40          1           0        1.958331    0.367358   -2.207525
     41          1           0        0.697720    0.914452   -1.132162
     42          1           0        1.594715   -1.952323   -1.696053
     43          1           0       -0.386974   -2.690763   -0.657157
     44          1           0       -1.264923   -1.287981    1.181924
     45          1           0       -0.706300    0.192191    0.427176
     46          1           0       -2.867187   -1.674951   -0.680955
     47          1           0       -2.272944   -0.234405   -1.511604
     48          1           0       -3.495330   -0.192142    1.296321
     49          1           0       -2.993804    1.201847    0.362014
     50          1           0       -5.829552    0.950029   -2.185725
     51          1           0       -4.297121    0.142277   -2.435831
     52          1           0       -4.329033    1.807834   -1.825760
     53          1           0       -5.023965    2.021375    0.948373
     54          1           0       -6.678854    3.069425    1.928378
     55          1           0       -7.482065    3.669463    0.455470
     56          1           0       -8.348470    2.587830    1.586867
     57          1           0       -6.258500   -0.653519    1.572851
     58          1           0       -6.153735   -3.506844    0.747397
     59          1           0       -6.864029   -2.838029    2.248228
     60          1           0       -7.685449   -2.592667    0.677324
     61          1           0        5.911490    1.687523    1.559466
     62          1           0        5.950193    3.855081    0.993297
     63          1           0        5.666816    4.303810   -0.696253
     64          1           0        7.208727    3.529382   -0.226085
 ---------------------------------------------------------------------
 Rotational constants (GHZ):      0.3587778      0.0432904      0.0408188
 Standard basis: 6-31G(d) (6D, 7F)
 There are   492 symmetry adapted basis functions of A   symmetry.
 Integral buffers will be    131072 words long.
 Raffenetti 1 integral format.
 Two-electron integral symmetry is turned on.
   492 basis functions,   928 primitive gaussians,   492 cartesian basis functions
   108 alpha electrons      108 beta electrons
       nuclear repulsion energy      2597.4038366164 Hartrees.
 NAtoms=   64 NActive=   64 NUniq=   64 SFac= 7.50D-01 NAtFMM=   80 NAOKFM=F Big=T
 One-electron integrals computed using PRISM.
 NBasis=   492 RedAO= T  NBF=   492
 NBsUse=   492 1.00D-06 NBFU=   492
 Harris functional with IExCor=  205 diagonalized for initial guess.
 ExpMin= 1.61D-01 ExpMax= 5.48D+03 ExpMxC= 8.25D+02 IAcc=1 IRadAn=         1 AccDes= 0.00D+00
 HarFok:  IExCor=  205 AccDes= 0.00D+00 IRadAn=         1 IDoV= 1
 ScaDFX=  1.000000  1.000000  1.000000  1.000000
 FoFCou: FMM=F IPFlag=           0 FMFlag=      100000 FMFlg1=           1
         NFxFlg=           0 DoJE=T BraDBF=F KetDBF=T FulRan=T
         Omega=  0.000000  0.000000  1.000000  0.000000  0.000000 ICntrl=     500 IOpCl=  0
         NMat0=    1 NMatS0=    1 NMatT0=    0 NMatD0=    1 NMtDS0=    0 NMtDT0=    0
         I1Cent=           4 NGrid=           0.
 Petite list used in FoFCou.
 Initial guess orbital symmetries:
       Occupied  (A) (A) (A) (A) (A) (A) (A) (A) (A) (A) (A) (A)
                 (A) (A) (A) (A) (A) (A) (A) (A) (A) (A) (A) (A)
                 (A) (A) (A) (A) (A) (A) (A) (A) (A) (A) (A) (A)
                 (A) (A) (A) (A) (A) (A) (A) (A) (A) (A) (A) (A)
                 (A) (A) (A) (A) (A) (A) (A) (A) (A) (A) (A) (A)
                 (A) (A) (A) (A) (A) (A) (A) (A) (A) (A) (A) (A)
                 (A) (A) (A) (A) (A) (A) (A) (A) (A) (A) (A) (A)
                 (A) (A) (A) (A) (A) (A) (A) (A) (A) (A) (A) (A)
                 (A) (A) (A) (A) (A) (A) (A) (A) (A) (A) (A) (A)
       Virtual   (A) (A) (A) (A) (A) (A) (A) (A) (A) (A) (A) (A)
                 (A) (A) (A) (A) (A) (A) (A) (A) (A) (A) (A) (A)
                 (A) (A) (A) (A) (A) (A) (A) (A) (A) (A) (A) (A)
                 (A) (A) (A) (A) (A) (A) (A) (A) (A) (A) (A) (A)
                 (A) (A) (A) (A) (A) (A) (A) (A) (A) (A) (A) (A)
                 (A) (A) (A) (A) (A) (A) (A) (A) (A) (A) (A) (A)
                 (A) (A) (A) (A) (A) (A) (A) (A) (A) (A) (A) (A)
                 (A) (A) (A) (A) (A) (A) (A) (A) (A) (A) (A) (A)
                 (A) (A) (A) (A) (A) (A) (A) (A) (A) (A) (A) (A)
                 (A) (A) (A) (A) (A) (A) (A) (A) (A) (A) (A) (A)
                 (A) (A) (A) (A) (A) (A) (A) (A) (A) (A) (A) (A)
                 (A) (A) (A) (A) (A) (A) (A) (A) (A) (A) (A) (A)
                 (A) (A) (A) (A) (A) (A) (A) (A) (A) (A) (A) (A)
                 (A) (A) (A) (A) (A) (A) (A) (A) (A) (A) (A) (A)
                 (A) (A) (A) (A) (A) (A) (A) (A) (A) (A) (A) (A)
                 (A) (A) (A) (A) (A) (A) (A) (A) (A) (A) (A) (A)
                 (A) (A) (A) (A) (A) (A) (A) (A) (A) (A) (A) (A)
                 (A) (A) (A) (A) (A) (A) (A) (A) (A) (A) (A) (A)
                 (A) (A) (A) (A) (A) (A) (A) (A) (A) (A) (A) (A)
                 (A) (A) (A) (A) (A) (A) (A) (A) (A) (A) (A) (A)
                 (A) (A) (A) (A) (A) (A) (A) (A) (A) (A) (A) (A)
                 (A) (A) (A) (A) (A) (A) (A) (A) (A) (A) (A) (A)
                 (A) (A) (A) (A) (A) (A) (A) (A) (A) (A) (A) (A)
                 (A) (A) (A) (A) (A) (A) (A) (A) (A) (A) (A) (A)
                 (A) (A) (A) (A) (A) (A) (A) (A) (A) (A) (A) (A)
                 (A) (A) (A) (A) (A) (A) (A) (A) (A) (A) (A) (A)
                 (A) (A) (A) (A) (A) (A) (A) (A) (A) (A) (A) (A)
                 (A) (A) (A) (A) (A) (A) (A) (A) (A) (A) (A) (A)
                 (A) (A) (A) (A) (A) (A) (A) (A) (A) (A) (A) (A)
                 (A) (A) (A) (A) (A) (A) (A) (A) (A) (A) (A) (A)
                 (A) (A) (A) (A) (A) (A) (A) (A) (A) (A) (A) (A)
                 (A) (A) (A) (A) (A) (A) (A) (A) (A) (A) (A) (A)
 The electronic state of the initial guess is 1-A.
 Requested convergence on RMS density matrix=1.00D-08 within 128 cycles.
 Requested convergence on MAX density matrix=1.00D-06.
 Requested convergence on             energy=1.00D-06.
 No special actions if energy rises.
 Integral accuracy reduced to 1.0D-05 until final iterations.
 Initial convergence to 1.0D-05 achieved.  Increase integral accuracy.
 SCF Done:  E(RHF) =  -1295.60570057     A.U. after   14 cycles
             Convg  =    0.9410D-08             -V/T =  2.0024

 **********************************************************************

            Population analysis using the SCF density.

 **********************************************************************

 Orbital symmetries:
 BldTbl:  Degeneracy threshold= 1.00D-02
       Occupied  (A) (A) (A) (A) (A) (A) (A) (A) (A) (A) (A) (A)
                 (A) (A) (A) (A) (A) (A) (A) (A) (A) (A) (A) (A)
                 (A) (A) (A) (A) (A) (A) (A) (A) (A) (A) (A) (A)
                 (A) (A) (A) (A) (A) (A) (A) (A) (A) (A) (A) (A)
                 (A) (A) (A) (A) (A) (A) (A) (A) (A) (A) (A) (A)
                 (A) (A) (A) (A) (A) (A) (A) (A) (A) (A) (A) (A)
                 (A) (A) (A) (A) (A) (A) (A) (A) (A) (A) (A) (A)
                 (A) (A) (A) (A) (A) (A) (A) (A) (A) (A) (A) (A)
                 (A) (A) (A) (A) (A) (A) (A) (A) (A) (A) (A) (A)
       Virtual   (A) (A) (A) (A) (A) (A) (A) (A) (A) (A) (A) (A)
                 (A) (A) (A) (A) (A) (A) (A) (A) (A) (A) (A) (A)
                 (A) (A) (A) (A) (A) (A) (A) (A) (A) (A) (A) (A)
                 (A) (A) (A) (A) (A) (A) (A) (A) (A) (A) (A) (A)
                 (A) (A) (A) (A) (A) (A) (A) (A) (A) (A) (A) (A)
                 (A) (A) (A) (A) (A) (A) (A) (A) (A) (A) (A) (A)
                 (A) (A) (A) (A) (A) (A) (A) (A) (A) (A) (A) (A)
                 (A) (A) (A) (A) (A) (A) (A) (A) (A) (A) (A) (A)
                 (A) (A) (A) (A) (A) (A) (A) (A) (A) (A) (A) (A)
                 (A) (A) (A) (A) (A) (A) (A) (A) (A) (A) (A) (A)
                 (A) (A) (A) (A) (A) (A) (A) (A) (A) (A) (A) (A)
                 (A) (A) (A) (A) (A) (A) (A) (A) (A) (A) (A) (A)
                 (A) (A) (A) (A) (A) (A) (A) (A) (A) (A) (A) (A)
                 (A) (A) (A) (A) (A) (A) (A) (A) (A) (A) (A) (A)
                 (A) (A) (A) (A) (A) (A) (A) (A) (A) (A) (A) (A)
                 (A) (A) (A) (A) (A) (A) (A) (A) (A) (A) (A) (A)
                 (A) (A) (A) (A) (A) (A) (A) (A) (A) (A) (A) (A)
                 (A) (A) (A) (A) (A) (A) (A) (A) (A) (A) (A) (A)
                 (A) (A) (A) (A) (A) (A) (A) (A) (A) (A) (A) (A)
                 (A) (A) (A) (A) (A) (A) (A) (A) (A) (A) (A) (A)
                 (A) (A) (A) (A) (A) (A) (A) (A) (A) (A) (A) (A)
                 (A) (A) (A) (A) (A) (A) (A) (A) (A) (A) (A) (A)
                 (A) (A) (A) (A) (A) (A) (A) (A) (A) (A) (A) (A)
                 (A) (A) (A) (A) (A) (A) (A) (A) (A) (A) (A) (A)
                 (A) (A) (A) (A) (A) (A) (A) (A) (A) (A) (A) (A)
                 (A) (A) (A) (A) (A) (A) (A) (A) (A) (A) (A) (A)
                 (A) (A) (A) (A) (A) (A) (A) (A) (A) (A) (A) (A)
                 (A) (A) (A) (A) (A) (A) (A) (A) (A) (A) (A) (A)
                 (A) (A) (A) (A) (A) (A) (A) (A) (A) (A) (A) (A)
                 (A) (A) (A) (A) (A) (A) (A) (A) (A) (A) (A) (A)
                 (A) (A) (A) (A) (A) (A) (A) (A) (A) (A) (A) (A)
                 (A) (A) (A) (A) (A) (A) (A) (A) (A) (A) (A) (A)
 The electronic state is 1-A.
 Alpha  occ. eigenvalues --  -20.53997 -20.52979 -20.52529 -20.52493 -15.60510
 Alpha  occ. eigenvalues --  -15.58946 -15.58439 -15.57591 -11.36707 -11.35422
 Alpha  occ. eigenvalues --  -11.35190 -11.35002 -11.29999 -11.29903 -11.25863
 Alpha  occ. eigenvalues --  -11.24995 -11.24977 -11.24353 -11.23633 -11.23346
 Alpha  occ. eigenvalues --  -11.23214 -11.22899 -11.22764 -11.22568 -11.22548
 Alpha  occ. eigenvalues --  -11.22472 -11.22381 -11.21539  -1.38983  -1.37901
 Alpha  occ. eigenvalues --   -1.36847  -1.36802  -1.24783  -1.22949  -1.22531
 Alpha  occ. eigenvalues --   -1.21202  -1.10873  -1.09357  -1.07293  -1.04414
 Alpha  occ. eigenvalues --   -1.01173  -0.99298  -0.98675  -0.95174  -0.94885
 Alpha  occ. eigenvalues --   -0.94561  -0.91389  -0.86871  -0.85299  -0.82076
 Alpha  occ. eigenvalues --   -0.80987  -0.79096  -0.78866  -0.76001  -0.75459
 Alpha  occ. eigenvalues --   -0.72196  -0.71625  -0.70188  -0.68821  -0.67581
 Alpha  occ. eigenvalues --   -0.66920  -0.65317  -0.64833  -0.63648  -0.63039
 Alpha  occ. eigenvalues --   -0.63002  -0.62258  -0.61994  -0.61946  -0.61276
 Alpha  occ. eigenvalues --   -0.60526  -0.59687  -0.59401  -0.58752  -0.58303
 Alpha  occ. eigenvalues --   -0.57669  -0.57512  -0.57072  -0.56423  -0.56193
 Alpha  occ. eigenvalues --   -0.54861  -0.54609  -0.54345  -0.53863  -0.53300
 Alpha  occ. eigenvalues --   -0.52748  -0.52442  -0.51906  -0.51286  -0.51193
 Alpha  occ. eigenvalues --   -0.51011  -0.50387  -0.50165  -0.48915  -0.48249
 Alpha  occ. eigenvalues --   -0.47571  -0.47504  -0.47226  -0.45069  -0.43032
 Alpha  occ. eigenvalues --   -0.42132  -0.42002  -0.41346  -0.39726  -0.39134
 Alpha  occ. eigenvalues --   -0.38758  -0.37857  -0.34086
 Alpha virt. eigenvalues --    0.17325   0.17570   0.18456   0.19058   0.19459
 Alpha virt. eigenvalues --    0.19734   0.20820   0.22846   0.23141   0.24179
 Alpha virt. eigenvalues --    0.24875   0.25185   0.25843   0.26526   0.26800
 Alpha virt. eigenvalues --    0.27158   0.28182   0.28463   0.28912   0.29289
 Alpha virt. eigenvalues --    0.29482   0.29671   0.30652   0.30853   0.30937
 Alpha virt. eigenvalues --    0.31612   0.31777   0.32284   0.32694   0.32957
 Alpha virt. eigenvalues --    0.33160   0.33566   0.33805   0.34129   0.34665
 Alpha virt. eigenvalues --    0.34794   0.35512   0.35843   0.36370   0.36465
 Alpha virt. eigenvalues --    0.36793   0.37431   0.37709   0.38338   0.38791
 Alpha virt. eigenvalues --    0.39366   0.40715   0.41502   0.41604   0.42487
 Alpha virt. eigenvalues --    0.43861   0.44630   0.44958   0.45192   0.46021
 Alpha virt. eigenvalues --    0.46394   0.48213   0.48464   0.51455   0.52354
 Alpha virt. eigenvalues --    0.53542   0.55808   0.56856   0.58411   0.59662
 Alpha virt. eigenvalues --    0.60605   0.61583   0.62355   0.69279   0.70355
 Alpha virt. eigenvalues --    0.71045   0.72028   0.72520   0.73114   0.73266
 Alpha virt. eigenvalues --    0.73681   0.74291   0.74914   0.75175   0.75655
 Alpha virt. eigenvalues --    0.76117   0.76496   0.76884   0.77390   0.78355
 Alpha virt. eigenvalues --    0.78665   0.79366   0.80355   0.80650   0.81568
 Alpha virt. eigenvalues --    0.82653   0.83657   0.83995   0.85055   0.85391
 Alpha virt. eigenvalues --    0.86176   0.86838   0.89319   0.89684   0.90064
 Alpha virt. eigenvalues --    0.90665   0.91378   0.92803   0.93214   0.93842
 Alpha virt. eigenvalues --    0.94534   0.95278   0.95941   0.96428   0.96968
 Alpha virt. eigenvalues --    0.97757   0.97928   0.99022   0.99442   0.99823
 Alpha virt. eigenvalues --    1.00238   1.00537   1.01504   1.02022   1.02852
 Alpha virt. eigenvalues --    1.03663   1.04543   1.05068   1.05957   1.06684
 Alpha virt. eigenvalues --    1.07056   1.08429   1.09306   1.09406   1.10152
 Alpha virt. eigenvalues --    1.11877   1.12142   1.12418   1.12976   1.13250
 Alpha virt. eigenvalues --    1.13411   1.13489   1.14167   1.14226   1.14557
 Alpha virt. eigenvalues --    1.15023   1.15652   1.15990   1.16461   1.16632
 Alpha virt. eigenvalues --    1.17158   1.17447   1.18047   1.18268   1.18759
 Alpha virt. eigenvalues --    1.18983   1.19153   1.19261   1.20019   1.20385
 Alpha virt. eigenvalues --    1.20518   1.21122   1.21313   1.21733   1.22040
 Alpha virt. eigenvalues --    1.22229   1.23109   1.23131   1.24172   1.24351
 Alpha virt. eigenvalues --    1.24876   1.25894   1.26334   1.26856   1.27220
 Alpha virt. eigenvalues --    1.28372   1.29568   1.30078   1.30977   1.31552
 Alpha virt. eigenvalues --    1.32525   1.32927   1.34661   1.35828   1.37057
 Alpha virt. eigenvalues --    1.37554   1.38420   1.38941   1.39430   1.41708
 Alpha virt. eigenvalues --    1.42411   1.43210   1.44315   1.44974   1.45870
 Alpha virt. eigenvalues --    1.47672   1.49787   1.50922   1.52115   1.53882
 Alpha virt. eigenvalues --    1.55385   1.56707   1.58078   1.58601   1.59718
 Alpha virt. eigenvalues --    1.60310   1.64729   1.65573   1.66946   1.67707
 Alpha virt. eigenvalues --    1.67795   1.71184   1.71608   1.72049   1.72794
 Alpha virt. eigenvalues --    1.73219   1.73748   1.75637   1.77345   1.78105
 Alpha virt. eigenvalues --    1.78841   1.80493   1.81366   1.82933   1.86795
 Alpha virt. eigenvalues --    1.88875   1.89344   1.92118   1.93048   1.93279
 Alpha virt. eigenvalues --    1.96244   1.97173   1.98704   1.99211   2.01630
 Alpha virt. eigenvalues --    2.02686   2.04617   2.05404   2.06089   2.07851
 Alpha virt. eigenvalues --    2.08400   2.08648   2.08914   2.09666   2.10841
 Alpha virt. eigenvalues --    2.11466   2.12082   2.13570   2.13909   2.14741
 Alpha virt. eigenvalues --    2.15092   2.15560   2.17006   2.17748   2.17937
 Alpha virt. eigenvalues --    2.19395   2.19799   2.20250   2.20516   2.21034
 Alpha virt. eigenvalues --    2.22694   2.23738   2.23869   2.25953   2.25992
 Alpha virt. eigenvalues --    2.26871   2.27516   2.28253   2.28978   2.29451
 Alpha virt. eigenvalues --    2.30646   2.31786   2.32442   2.32996   2.33820
 Alpha virt. eigenvalues --    2.34149   2.35216   2.36148   2.36673   2.37054
 Alpha virt. eigenvalues --    2.37919   2.38012   2.39053   2.41470   2.42876
 Alpha virt. eigenvalues --    2.43204   2.45575   2.46258   2.47373   2.48693
 Alpha virt. eigenvalues --    2.49877   2.50963   2.52607   2.52887   2.53890
 Alpha virt. eigenvalues --    2.54578   2.55685   2.56340   2.57369   2.57804
 Alpha virt. eigenvalues --    2.59868   2.61378   2.61672   2.62231   2.62853
 Alpha virt. eigenvalues --    2.63607   2.65492   2.66491   2.67390   2.68669
 Alpha virt. eigenvalues --    2.68685   2.71173   2.71865   2.72985   2.73393
 Alpha virt. eigenvalues --    2.74172   2.74834   2.76237   2.76667   2.77412
 Alpha virt. eigenvalues --    2.79108   2.79479   2.81167   2.82482   2.82996
 Alpha virt. eigenvalues --    2.84976   2.89982   2.90145   2.91395   2.93501
 Alpha virt. eigenvalues --    2.94096   2.95713   2.96149   2.98995   2.99689
 Alpha virt. eigenvalues --    3.01412   3.02375   3.03885   3.04585   3.05655
 Alpha virt. eigenvalues --    3.07239   3.08449   3.10031   3.13620   3.14579
 Alpha virt. eigenvalues --    3.16086   3.19465   3.20562   3.24509   3.26388
 Alpha virt. eigenvalues --    3.29872   3.30852   3.36968   3.38065   3.38839
 Alpha virt. eigenvalues --    3.39221   3.40999   3.47341   3.47782   3.53438
 Alpha virt. eigenvalues --    3.53685   4.33956   4.37054   4.41818   4.46770
 Alpha virt. eigenvalues --    4.47001   4.51150   4.55070   4.56691   4.58171
 Alpha virt. eigenvalues --    4.61482   4.62909   4.63496   4.65966   4.69510
 Alpha virt. eigenvalues --    4.71796   4.73005   4.74041   4.80582   4.82675
 Alpha virt. eigenvalues --    4.86083   4.86727   4.91134   4.93232   4.96350
 Alpha virt. eigenvalues --    4.98001   5.04854   5.17584   5.17987
          Condensed to atoms (all electrons):
 Mulliken atomic charges:
              1
     1  C   -0.277140
     2  N   -0.797829
     3  C    0.803865
     4  O   -0.649764
     5  C    0.087126
     6  C   -0.485417
     7  C   -0.342151
     8  C   -0.293913
     9  C   -0.354777
    10  C   -0.181177
    11  C   -0.165635
    12  C   -0.351368
    13  C   -0.322672
    14  C   -0.327714
    15  C    0.122666
    16  C   -0.488139
    17  N   -0.849985
    18  C    0.753328
    19  C   -0.583223
    20  O   -0.605533
    21  C    0.800352
    22  O   -0.632108
    23  N   -0.776516
    24  C   -0.280538
    25  N   -0.784936
    26  C    0.773943
    27  C   -0.587716
    28  O   -0.625052
    29  H    0.206321
    30  H    0.166809
    31  H    0.177880
    32  H    0.393717
    33  H    0.188859
    34  H    0.178443
    35  H    0.180689
    36  H    0.149152
    37  H    0.223020
    38  H    0.180736
    39  H    0.156030
    40  H    0.181581
    41  H    0.169203
    42  H    0.171309
    43  H    0.180314
    44  H    0.166700
    45  H    0.164492
    46  H    0.201444
    47  H    0.175888
    48  H    0.184298
    49  H    0.153758
    50  H    0.215057
    51  H    0.201882
    52  H    0.146206
    53  H    0.385815
    54  H    0.170515
    55  H    0.211101
    56  H    0.215426
    57  H    0.394757
    58  H    0.200825
    59  H    0.163048
    60  H    0.180757
    61  H    0.391375
    62  H    0.172879
    63  H    0.206541
    64  H    0.215194
 Sum of Mulliken atomic charges =   0.00000
 Mulliken charges with hydrogens summed into heavy atoms:
              1
     1  C    0.273869
     2  N   -0.404112
     3  C    0.803865
     4  O   -0.649764
     5  C    0.087126
     6  C    0.062575
     7  C    0.030021
     8  C    0.042853
     9  C   -0.003993
    10  C   -0.009868
    11  C    0.014679
    12  C   -0.020176
    13  C    0.054661
    14  C    0.010342
    15  C    0.122666
    16  C    0.075006
    17  N   -0.464170
    18  C    0.753328
    19  C    0.013819
    20  O   -0.605533
    21  C    0.800352
    22  O   -0.632108
    23  N   -0.381759
    24  C    0.264093
    25  N   -0.393561
    26  C    0.773943
    27  C    0.006898
    28  O   -0.625052
 Sum of Mulliken charges with hydrogens summed into heavy atoms =   0.00000
 DipInt: DoE/N= T F RetVal/Mat= T F Init=T NMatP=  1 IDeriv=0 Min/MaxMlt=  0  4
 Entering OneElI...
 OneElI was handed    32936476 working-precision words.
 Multipole integrals L=0 to 4 MinM= 0 MaxM= 0.
 Requested accuracy = 0.1000D-12
 PrsmSu:  NPrtUS=   1 ThrOK=F IAlg=1
 PRISM was handed    32107149 working-precision words and  9592 shell-pairs
 IPart=  0 NShTot=        9592 NBatch=          72 AvBLen=       133.2
 Electronic moments (au):
       -216.00000000          0.02848083          0.93119906          2.49738760
     -22080.67842927      -2308.07233335       -887.05327182        -21.25795583
        -15.63921240          3.62529981       9535.21098818      -1560.86346706
       -158.09979702      -2165.82150679      -4797.68135720      -7346.38371146
        405.08237024        -14.82852442       -369.86097008        841.52704981
   -3217283.41370047     -63914.92785107     -10850.73490901     118759.17641397
      36090.51074433     -14842.11110175      -1257.03696501      -4549.75255739
       1283.34398850    -311653.00438044     -83300.23569178      -8291.99037653
       -160.26633917      18334.79327503      -1527.92877945
 Electronic spatial extent (au):  <R**2>=          25275.8040
 DipInt: DoE/N= F T RetVal/Mat= T F Init=T NMatP=  1 IDeriv=0 Min/MaxMlt=  0  4
 Nuclear    moments (au):
        216.00000000          0.00000000          0.00000000          0.00000000
      21919.13179497       2193.78355054        756.56921363          0.00000000
          0.00000000          0.00000000      -9539.78696691       1603.52572077
        187.37533097       2217.54644197       4886.77344076       7677.77144691
       -427.66123574         18.77577857        399.47165492       -765.49639605
    3129753.23880768      56404.93450342       7780.98318517    -120637.55615682
     -39733.93375267      14583.07885880       1275.85314692       4627.80802314
      -1251.57251450     299789.07228343      69928.98130552       6366.17907840
        677.11358955     -18628.39793758       1340.07668778
 Total      moments (au):
          0.00000000          0.02848083          0.93119906          2.49738760
       -161.54663429       -114.28878281       -130.48405819        -21.25795583
        -15.63921240          3.62529981         -4.57597873         42.66225371
         29.27553395         51.72493518         89.09208357        331.38773545
        -22.57886551          3.94725415         29.61068484         76.03065376
     -87530.17489280      -7509.99334764      -3069.75172384      -1878.37974285
      -3643.42300834       -259.03224295         18.81618190         78.05546575
         31.77147399     -11863.93209701     -13371.25438625      -1925.81129813
        516.84725037       -293.60466254       -187.85209166
 Traceless Quadrup. (au):
        -26.10680920         21.15104228          4.95576691        -21.25795583
        -15.63921240          3.62529981
 Charge=              0.0000 electrons
 Dipole moment (field-independent basis, Debye):
    X=              0.0724    Y=              2.3669    Z=              6.3477  Tot=              6.7750
 Quadrupole moment (field-independent basis, Debye-Ang):
   XX=           -217.2857   YY=           -153.7223   ZZ=           -175.5055
   XY=            -28.5927   XZ=            -21.0353   YZ=              4.8762
 Traceless Quadrupole moment (field-independent basis, Debye-Ang):
   XX=            -35.1146   YY=             28.4489   ZZ=              6.6657
   XY=            -28.5927   XZ=            -21.0353   YZ=              4.8762
 Octapole moment (field-independent basis, Debye-Ang**2):
  XXX=             -3.2570  YYY=             30.3653  ZZZ=             20.8372  XYY=             36.8158
  XXY=             63.4123  XXZ=            235.8690  XZZ=            -16.0708  YZZ=              2.8095
  YYZ=             21.0757  XYZ=             54.1157
 Hexadecapole moment (field-independent basis, Debye-Ang**3):
 XXXX=         -32968.0589 YYYY=          -2828.6234 ZZZZ=          -1156.2156 XXXY=           -707.4878
 XXXZ=          -1372.2877 YYYX=            -97.5640 YYYZ=              7.0871 ZZZX=             29.3994
 ZZZY=             11.9667 XXYY=          -4468.5254 XXZZ=          -5036.2552 YYZZ=           -725.3528
 XXYZ=            194.6694 YYXZ=           -110.5856 ZZXY=            -70.7541
 N-N= 2.597403836616D+03 E-N=-8.225270711056D+03  KE= 1.292489797946D+03
 Entering OneElI...
 OneElI was handed    32450256 working-precision words.
 Calculate electrostatic properties
    NBasis =   492  MinDer = 0  MaxDer = 0
    NGrid  =    64  NMatD  =   1
 Requested accuracy = 0.1000D-12
 PrsmSu:  NPrtUS=   1 ThrOK=F IAlg=1
 PRISM was handed    31710886 working-precision words and  8164 shell-pairs
 IPart=  0 NShTot=      522496 NBatch=        8164 AvBLen=        64.0
 --------------------------------------------------------
       Center         ----      EFG at Nuclei      ----
                      3XX-RR        3YY-RR        3ZZ-RR
 --------------------------------------------------------
     1   Atom       -0.123988      0.000051      0.123936
     2   Atom       -0.455335     -0.301193      0.756528
     3   Atom        0.397157      0.093659     -0.490816
     4   Atom       -0.364452      0.892067     -0.527616
     5   Atom        0.081012     -0.235699      0.154688
     6   Atom        0.026624      0.032188     -0.058812
     7   Atom       -0.032354     -0.005671      0.038025
     8   Atom       -0.027382      0.030524     -0.003142
     9   Atom        0.015484     -0.021088      0.005604
    10   Atom        0.073601      0.090842     -0.164443
    11   Atom        0.076270      0.089499     -0.165769
    12   Atom        0.003784      0.006089     -0.009873
    13   Atom       -0.031195      0.030199      0.000995
    14   Atom       -0.050160      0.024670      0.025490
    15   Atom        0.028908     -0.081523      0.052614
    16   Atom        0.064995     -0.008206     -0.056788
    17   Atom       -0.458216     -0.052290      0.510506
    18   Atom        0.144031      0.025080     -0.169112
    19   Atom        0.031889     -0.017281     -0.014608
    20   Atom        0.553353      0.120225     -0.673578
    21   Atom       -0.387703      0.246288      0.141415
    22   Atom       -0.259410      0.309850     -0.050440
    23   Atom        0.620782     -0.403601     -0.217181
    24   Atom        0.037487     -0.145421      0.107934
    25   Atom        0.629506     -0.329489     -0.300017
    26   Atom       -0.456082      0.200859      0.255223
    27   Atom        0.022656     -0.042446      0.019791
    28   Atom       -0.542767      1.210795     -0.668029
    29   Atom       -0.079771      0.142825     -0.063054
    30   Atom        0.114877     -0.272493      0.157615
    31   Atom        0.092683      0.104101     -0.196784
    32   Atom       -0.251802      0.111096      0.140706
    33   Atom       -0.115286      0.021968      0.093318
    34   Atom       -0.100442      0.142740     -0.042298
    35   Atom        0.123726     -0.263022      0.139296
    36   Atom        0.113637     -0.257960      0.144323
    37   Atom        0.085057      0.148846     -0.233903
    38   Atom        0.120318     -0.270150      0.149832
    39   Atom        0.067652      0.141162     -0.208814
    40   Atom        0.075821      0.131655     -0.207476
    41   Atom       -0.103310     -0.043949      0.147259
    42   Atom        0.011199     -0.064841      0.053641
    43   Atom        0.122451     -0.277173      0.154723
    44   Atom        0.135127      0.061423     -0.196550
    45   Atom        0.083058     -0.217606      0.134548
    46   Atom        0.076958     -0.216872      0.139914
    47   Atom        0.129323      0.076458     -0.205782
    48   Atom        0.135431      0.093224     -0.228655
    49   Atom        0.071385     -0.221110      0.149725
    50   Atom       -0.219371      0.142216      0.077154
    51   Atom        0.043723     -0.023079     -0.020644
    52   Atom        0.062309     -0.203648      0.141339
    53   Atom       -0.019974     -0.112831      0.132804
    54   Atom       -0.041234      0.124880     -0.083647
    55   Atom        0.150104     -0.127794     -0.022310
    56   Atom       -0.198192      0.125694      0.072497
    57   Atom        0.171070     -0.163131     -0.007939
    58   Atom        0.028571     -0.119015      0.090444
    59   Atom        0.147200      0.130789     -0.277989
    60   Atom       -0.201574      0.137871      0.063704
    61   Atom        0.014885      0.132529     -0.147414
    62   Atom        0.143411      0.108650     -0.252061
    63   Atom        0.069787     -0.062831     -0.006956
    64   Atom       -0.286863      0.144522      0.142342
 --------------------------------------------------------
                        XY            XZ            YZ
 --------------------------------------------------------
     1   Atom        0.181951      0.097377     -0.050498
     2   Atom        0.091276     -0.176454     -0.527540
     3   Atom       -0.025113      0.017612      0.242773
     4   Atom       -1.050707     -0.349090      0.528605
     5   Atom       -0.014099      0.034442     -0.010728
     6   Atom       -0.015349      0.027384      0.025009
     7   Atom       -0.024210     -0.081474     -0.045671
     8   Atom        0.039453     -0.014929     -0.017827
     9   Atom       -0.008634     -0.021097      0.004077
    10   Atom        0.073747     -0.209329      0.045556
    11   Atom        0.072597     -0.215198      0.036853
    12   Atom        0.013271     -0.006136     -0.011745
    13   Atom        0.051824      0.007753     -0.021796
    14   Atom       -0.023638     -0.064148     -0.014599
    15   Atom        0.124620      0.138691     -0.167608
    16   Atom       -0.029225      0.011102      0.058642
    17   Atom        0.083828     -0.109106     -0.667579
    18   Atom       -0.070969      0.140976      0.454758
    19   Atom        0.015778      0.003894     -0.039979
    20   Atom       -1.161727     -0.577660      0.386536
    21   Atom        0.240481     -0.213410      0.155847
    22   Atom        0.760794     -0.631604     -1.049486
    23   Atom       -0.318335      0.563017     -0.101981
    24   Atom       -0.184236      0.030187      0.065021
    25   Atom       -0.523075     -0.402592      0.198128
    26   Atom        0.304437      0.118281      0.063749
    27   Atom       -0.021522     -0.001291     -0.027887
    28   Atom        0.692715     -0.209545     -0.793064
    29   Atom       -0.032230     -0.211340     -0.045007
    30   Atom       -0.093841     -0.002687     -0.028315
    31   Atom       -0.037794      0.135270      0.125435
    32   Atom       -0.151371     -0.197794     -0.102420
    33   Atom        0.185239      0.115483     -0.077416
    34   Atom       -0.043288     -0.210877     -0.031339
    35   Atom       -0.111861      0.003532      0.004113
    36   Atom       -0.093860      0.006156      0.050820
    37   Atom       -0.003478      0.129204      0.023974
    38   Atom       -0.090672      0.000896      0.021131
    39   Atom       -0.025385      0.158979      0.064070
    40   Atom       -0.029047      0.157408      0.059762
    41   Atom        0.214794      0.027051     -0.025244
    42   Atom        0.165144      0.128089     -0.149787
    43   Atom       -0.100821      0.002840     -0.035159
    44   Atom       -0.025209      0.058705      0.171330
    45   Atom       -0.145725     -0.029680     -0.079017
    46   Atom       -0.144251     -0.020152     -0.055799
    47   Atom       -0.023935      0.062716      0.159802
    48   Atom       -0.006043      0.024372      0.141103
    49   Atom       -0.148740     -0.012971     -0.032719
    50   Atom        0.044597     -0.151493      0.022077
    51   Atom        0.139154      0.129519     -0.162478
    52   Atom       -0.183697      0.006965      0.017477
    53   Atom       -0.221196     -0.124552     -0.191644
    54   Atom       -0.060228     -0.207205     -0.081057
    55   Atom        0.035169     -0.022367      0.213234
    56   Atom       -0.079472      0.167069      0.034964
    57   Atom        0.103543      0.118728     -0.246479
    58   Atom        0.165954      0.090698     -0.129178
    59   Atom       -0.018082      0.060543      0.065146
    60   Atom        0.020237     -0.178274      0.017661
    61   Atom       -0.106415     -0.273044     -0.078491
    62   Atom        0.015479      0.070161     -0.110885
    63   Atom        0.125885     -0.115075      0.180976
    64   Atom        0.008910      0.074050     -0.004439
 --------------------------------------------------------


 ---------------------------------------------------------------------------------
              Nuclear Quadrupole in Principal Axis System
 ---------------------------------------------------------------------------------

       Atom             a.u.   MegaHertz   Gauss  10(-4) cm-1        Axes

              Baa    -0.2832   -38.002   -13.560   -12.676  0.7913 -0.5543 -0.2580
     1 C(13)  Bbb     0.1228    16.473     5.878     5.495  0.4197  0.7993 -0.4300
              Bcc     0.1604    21.529     7.682     7.181  0.4446  0.2320  0.8652
 
              Baa    -0.5258   -20.278    -7.236    -6.764 -0.3563  0.8803  0.3131
     2 N(14)  Bbb    -0.4758   -18.349    -6.548    -6.121  0.9246  0.2839  0.2539
              Bcc     1.0016    38.628    13.783    12.885 -0.1346 -0.3800  0.9151
 
              Baa    -0.5791   -77.716   -27.731   -25.923 -0.0257 -0.3402  0.9400
     3 C(13)  Bbb     0.1799    24.143     8.615     8.053  0.0806  0.9366  0.3411
              Bcc     0.3992    53.573    19.116    17.870  0.9964 -0.0845 -0.0033
 
              Baa    -0.9670    69.974    24.969    23.341  0.8783  0.4529  0.1529
     4 O(17)  Bbb    -0.7028    50.855    18.146    16.963 -0.0023 -0.3160  0.9488
              Bcc     1.6699  -120.830   -43.115   -40.304 -0.4780  0.8337  0.2765
 
              Baa    -0.2365   -31.742   -11.326   -10.588  0.0418  0.9988  0.0237
     5 C(13)  Bbb     0.0677     9.084     3.241     3.030  0.9281 -0.0300 -0.3711
              Bcc     0.1688    22.658     8.085     7.558  0.3700 -0.0375  0.9283
 
              Baa    -0.0744    -9.983    -3.562    -3.330 -0.2891 -0.2579  0.9219
     6 C(13)  Bbb     0.0293     3.938     1.405     1.314  0.7333  0.5594  0.3865
              Bcc     0.0451     6.045     2.157     2.017 -0.6154  0.7877  0.0274
 
              Baa    -0.1069   -14.339    -5.116    -4.783  0.7287  0.4189  0.5418
     7 C(13)  Bbb     0.0086     1.155     0.412     0.385 -0.4920  0.8705 -0.0113
              Bcc     0.0982    13.184     4.704     4.398 -0.4764 -0.2584  0.8404
 
              Baa    -0.0481    -6.450    -2.301    -2.151  0.8976 -0.4208  0.1313
     8 C(13)  Bbb    -0.0108    -1.444    -0.515    -0.482  0.0361  0.3669  0.9295
              Bcc     0.0588     7.893     2.817     2.633  0.4394  0.8296 -0.3445
 
              Baa    -0.0230    -3.093    -1.104    -1.032  0.2377  0.9706  0.0369
     9 C(13)  Bbb    -0.0107    -1.442    -0.514    -0.481  0.5822 -0.1728  0.7945
              Bcc     0.0338     4.534     1.618     1.512  0.7775 -0.1674 -0.6062
 
              Baa    -0.3013   -40.426   -14.425   -13.485  0.5071 -0.1930  0.8400
    10 C(13)  Bbb     0.0905    12.140     4.332     4.049 -0.2146  0.9157  0.3399
              Bcc     0.2108    28.287    10.093     9.435  0.8348  0.3526 -0.4229
 
              Baa    -0.3037   -40.751   -14.541   -13.593  0.5102 -0.1732  0.8424
    11 C(13)  Bbb     0.0853    11.449     4.085     3.819 -0.2157  0.9224  0.3203
              Bcc     0.2184    29.302    10.456     9.774  0.8326  0.3451 -0.4333
 
              Baa    -0.0161    -2.166    -0.773    -0.723 -0.0632  0.4954  0.8664
    12 C(13)  Bbb    -0.0071    -0.955    -0.341    -0.319  0.7975 -0.4969  0.3423
              Bcc     0.0233     3.121     1.114     1.041  0.6001  0.7125 -0.3637
 
              Baa    -0.0655    -8.787    -3.135    -2.931  0.8225 -0.5051 -0.2615
    13 C(13)  Bbb     0.0020     0.262     0.093     0.087  0.3477  0.0827  0.9339
              Bcc     0.0635     8.525     3.042     2.844  0.4501  0.8591 -0.2436
 
              Baa    -0.0933   -12.525    -4.469    -4.178  0.8445  0.2290  0.4841
    14 C(13)  Bbb     0.0312     4.183     1.493     1.395 -0.2137  0.9730 -0.0876
              Bcc     0.0622     8.342     2.977     2.782 -0.4910 -0.0294  0.8706
 
              Baa    -0.2969   -39.835   -14.214   -13.288 -0.4900  0.6941  0.5274
    15 C(13)  Bbb     0.1050    14.084     5.025     4.698  0.7244  0.6608 -0.1966
              Bcc     0.1919    25.752     9.189     8.590  0.4849 -0.2857  0.8266
 
              Baa    -0.1000   -13.414    -4.786    -4.474 -0.1548 -0.5666  0.8093
    16 C(13)  Bbb     0.0239     3.208     1.145     1.070  0.3622  0.7296  0.5801
              Bcc     0.0761    10.206     3.642     3.404  0.9191 -0.3830 -0.0922
 
              Baa    -0.4986   -19.232    -6.862    -6.415 -0.3271  0.8040  0.4965
    17 N(14)  Bbb    -0.4681   -18.055    -6.443    -6.023  0.9401  0.2236  0.2573
              Bcc     0.9668    37.287    13.305    12.438 -0.0959 -0.5510  0.8290
 
              Baa    -0.5704   -76.539   -27.311   -25.531 -0.2114 -0.6090  0.7645
    18 C(13)  Bbb     0.1725    23.144     8.258     7.720  0.9666 -0.2463  0.0710
              Bcc     0.3979    53.395    19.053    17.811  0.1450  0.7539  0.6407
 
              Baa    -0.0582    -7.804    -2.785    -2.603 -0.1555  0.7207  0.6755
    19 C(13)  Bbb     0.0196     2.628     0.938     0.877  0.4784 -0.5434  0.6898
              Bcc     0.0386     5.176     1.847     1.727  0.8643  0.4305 -0.2603
 
              Baa    -0.9297    67.272    24.004    22.439  0.5659  0.3517  0.7457
    20 O(17)  Bbb    -0.7888    57.078    20.367    19.039  0.3556  0.7119 -0.6056
              Bcc     1.7185  -124.349   -44.371   -41.478  0.7438 -0.6079 -0.2779
 
              Baa    -0.5600   -75.151   -26.816   -25.068  0.8808 -0.3286  0.3410
    21 C(13)  Bbb     0.1910    25.635     9.147     8.551 -0.4497 -0.3548  0.8197
              Bcc     0.3690    49.516    17.669    16.517  0.1484  0.8753  0.4603
 
              Baa    -0.9354    67.684    24.151    22.577 -0.0342  0.6562  0.7538
    22 O(17)  Bbb    -0.7594    54.953    19.609    18.330  0.8916 -0.3206  0.3197
              Bcc     1.6948  -122.637   -43.760   -40.907  0.4515  0.6830 -0.5741
 
              Baa    -0.5423   -20.917    -7.464    -6.977  0.4718  0.6265 -0.6204
    23 N(14)  Bbb    -0.4401   -16.972    -6.056    -5.661 -0.1250  0.7441  0.6563
              Bcc     0.9824    37.889    13.520    12.638  0.8728 -0.2321  0.4294
 
              Baa    -0.2730   -36.628   -13.070   -12.218  0.5148  0.8374 -0.1837
    24 C(13)  Bbb     0.1190    15.974     5.700     5.328  0.3072  0.0199  0.9514
              Bcc     0.1539    20.654     7.370     6.889  0.8004 -0.5463 -0.2470
 
              Baa    -0.5626   -21.700    -7.743    -7.238  0.3520  0.9228 -0.1565
    25 N(14)  Bbb    -0.4501   -17.359    -6.194    -5.790  0.3585  0.0215  0.9333
              Bcc     1.0127    39.058    13.937    13.028  0.8646 -0.3847 -0.3232
 
              Baa    -0.5846   -78.444   -27.991   -26.166  0.9301 -0.3521 -0.1043
    26 C(13)  Bbb     0.1865    25.028     8.931     8.348 -0.1374 -0.5970  0.7904
              Bcc     0.3981    53.416    19.060    17.818  0.3405  0.7208  0.6037
 
              Baa    -0.0584    -7.832    -2.795    -2.612  0.2473  0.9113  0.3293
    27 C(13)  Bbb     0.0228     3.055     1.090     1.019  0.7488  0.0359 -0.6619
              Bcc     0.0356     4.777     1.705     1.593  0.6150 -0.4102  0.6735
 
              Baa    -0.9660    69.900    24.942    23.316 -0.1904  0.3890  0.9014
    28 O(17)  Bbb    -0.7645    55.319    19.739    18.452  0.9338 -0.2116  0.2885
              Bcc     1.7305  -125.219   -44.681   -41.768  0.3030  0.8966 -0.3229
 
              Baa    -0.2898  -154.607   -55.168   -51.571  0.7133  0.1249  0.6897
    29 H(1)   Bbb     0.1338    71.372    25.467    23.807  0.6359 -0.5290 -0.5619
              Bcc     0.1560    83.235    29.700    27.764  0.2947  0.8394 -0.4568
 
              Baa    -0.2958  -157.815   -56.312   -52.642  0.2227  0.9729  0.0621
    30 H(1)   Bbb     0.1358    72.472    25.860    24.174  0.9651 -0.2110 -0.1553
              Bcc     0.1600    85.343    30.453    28.467  0.1379 -0.0945  0.9859
 
              Baa    -0.2931  -156.382   -55.801   -52.163 -0.3414 -0.3124  0.8865
    31 H(1)   Bbb     0.1362    72.670    25.930    24.240  0.7536 -0.6546  0.0595
              Bcc     0.1569    83.712    29.870    27.923  0.5617  0.6884  0.4590
 
              Baa    -0.3975  -212.101   -75.683   -70.749  0.8626  0.3333  0.3804
    32 H(1)   Bbb     0.1566    83.553    29.814    27.870 -0.4572  0.8357  0.3044
              Bcc     0.2409   128.548    45.869    42.879 -0.2164 -0.4365  0.8733
 
              Baa    -0.2941  -156.909   -55.989   -52.339  0.7736 -0.5361 -0.3378
    33 H(1)   Bbb     0.1426    76.070    27.144    25.374  0.1165 -0.4036  0.9075
              Bcc     0.1515    80.839    28.846    26.965  0.6229  0.7414  0.2497
 
              Baa    -0.2908  -155.145   -55.360   -51.751  0.7491  0.1219  0.6511
    34 H(1)   Bbb     0.1392    74.285    26.507    24.779 -0.5529 -0.4264  0.7159
              Bcc     0.1515    80.860    28.853    26.972 -0.3649  0.8963  0.2520
 
              Baa    -0.2931  -156.385   -55.802   -52.164  0.2593  0.9657 -0.0113
    35 H(1)   Bbb     0.1390    74.153    26.459    24.735 -0.1485  0.0514  0.9876
[...]
 **** Fit       0.001078
 **** Fit       0.000847
 **** Fit       0.000644
 **** Fit       0.000430
 **** Fit       0.000180
 **** Fit      -0.000120
 **** Fit      -0.000479
 **** Fit      -0.000913
 **** Fit      -0.001471
 **** Fit      -0.003433
 **** Fit      -0.000124
 **** Fit      -0.000266
 **** Fit      -0.000402
 **** Fit      -0.000566
 **** Fit      -0.000783
 **** Fit      -0.001065
 **** Fit      -0.001414
 **** Fit      -0.001824
 **** Fit      -0.002285
 **** Fit      -0.002803
 **** Fit      -0.005417
 **** Fit      -0.001623
 **** Fit      -0.001678
 **** Fit      -0.001741
 **** Fit      -0.001848
 **** Fit      -0.002027
 **** Fit      -0.002296
 **** Fit      -0.002662
 **** Fit      -0.003123
 **** Fit      -0.003662
 **** Fit      -0.004252
 **** Fit      -0.004853
 **** Fit      -0.003567
 **** Fit      -0.003516
 **** Fit      -0.003514
 **** Fit      -0.003600
 **** Fit      -0.003804
 **** Fit      -0.004148
 **** Fit      -0.004646
 **** Fit      -0.005302
 **** Fit      -0.006107
 **** Fit      -0.007033
 **** Fit      -0.008022
 **** Fit      -0.006077
 **** Fit      -0.005871
 **** Fit      -0.005762
 **** Fit      -0.005794
 **** Fit      -0.006004
 **** Fit      -0.006426
 **** Fit      -0.007092
 **** Fit      -0.008026
 **** Fit      -0.009254
 **** Fit      -0.010794
 **** Fit      -0.012649
 **** Fit      -0.008947
 **** Fit      -0.008663
 **** Fit      -0.008595
 **** Fit      -0.008788
 **** Fit      -0.009286
 **** Fit      -0.010143
 **** Fit      -0.011423
 **** Fit      -0.013211
 **** Fit      -0.015630
 **** Fit      -0.012815
 **** Fit      -0.012317
 **** Fit      -0.012221
 **** Fit      -0.012579
 **** Fit      -0.013474
 **** Fit      -0.015020
 **** Fit      -0.017398
 **** Fit      -0.020902
 **** Fit      -0.017927
 **** Fit      -0.017057
 **** Fit      -0.016914
 **** Fit      -0.017565
 **** Fit      -0.019161
 **** Fit      -0.021976
 **** Fit      -0.023749
 **** Fit      -0.023049
 **** Fit      -0.023861
 **** Fit      -0.026460
 **** Fit       0.011902
 **** Fit       0.011721
 **** Fit       0.013044
 **** Fit       0.013031
 **** Fit       0.011773
 **** Fit       0.010877
 **** Fit       0.010826
 **** Fit       0.011208
 **** Fit       0.012755
 **** Fit       0.014375
 **** Fit       0.015032
 **** Fit       0.014251
 **** Fit       0.012734
 **** Fit       0.011352
 **** Fit       0.010430
 **** Fit       0.009915
 **** Fit       0.009699
 **** Fit       0.009769
 **** Fit       0.010221
 **** Fit       0.010334
 **** Fit       0.011819
 **** Fit       0.013857
 **** Fit       0.015991
 **** Fit       0.017296
 **** Fit       0.017087
 **** Fit       0.015606
 **** Fit       0.013665
 **** Fit       0.011928
 **** Fit       0.010651
 **** Fit       0.009815
 **** Fit       0.009298
 **** Fit       0.008980
 **** Fit       0.008784
 **** Fit       0.008685
 **** Fit       0.008708
 **** Fit       0.008917
 **** Fit       0.009413
 **** Fit       0.009063
 **** Fit       0.010411
 **** Fit       0.012533
 **** Fit       0.015429
 **** Fit       0.020578
 **** Fit       0.018820
 **** Fit       0.016223
 **** Fit       0.013680
 **** Fit       0.011646
 **** Fit       0.010208
 **** Fit       0.009273
 **** Fit       0.008695
 **** Fit       0.008341
 **** Fit       0.008111
 **** Fit       0.007941
 **** Fit       0.007802
 **** Fit       0.007693
 **** Fit       0.007635
 **** Fit       0.007668
 **** Fit       0.007853
 **** Fit       0.008275
 **** Fit       0.007350
 **** Fit       0.008397
 **** Fit       0.018761
 **** Fit       0.015122
 **** Fit       0.012258
 **** Fit       0.010240
 **** Fit       0.008927
 **** Fit       0.008126
 **** Fit       0.007662
 **** Fit       0.007398
 **** Fit       0.007237
 **** Fit       0.007115
 **** Fit       0.006997
 **** Fit       0.006867
 **** Fit       0.006729
 **** Fit       0.006599
 **** Fit       0.006501
 **** Fit       0.006471
 **** Fit       0.006553
 **** Fit       0.006809
 **** Fit       0.016975
 **** Fit       0.012988
 **** Fit       0.010233
 **** Fit       0.008459
 **** Fit       0.007387
 **** Fit       0.006785
 **** Fit       0.006474
 **** Fit       0.006327
 **** Fit       0.006259
 **** Fit       0.006214
 **** Fit       0.006156
 **** Fit       0.006067
 **** Fit       0.005942
 **** Fit       0.005786
 **** Fit       0.005609
 **** Fit       0.005428
 **** Fit       0.005260
 **** Fit       0.005125
 **** Fit       0.005040
 **** Fit       0.005029
 **** Fit       0.005657
 **** Fit       0.005283
 **** Fit       0.005156
 **** Fit       0.005155
 **** Fit       0.005200
 **** Fit       0.005243
 **** Fit       0.005251
 **** Fit       0.005209
 **** Fit       0.005112
 **** Fit       0.004961
 **** Fit       0.004767
 **** Fit       0.004539
 **** Fit       0.004283
 **** Fit       0.004127
 **** Fit       0.004261
 **** Fit       0.004342
 **** Fit       0.004359
 **** Fit       0.004308
 **** Fit      -0.002963
 **** Fit      -0.002211
 **** Fit      -0.001396
 **** Fit      -0.000630
 **** Fit       0.000059
 **** Fit       0.000682
 **** Fit      -0.008754
 **** Fit      -0.006749
 **** Fit      -0.005008
 **** Fit      -0.003582
 **** Fit      -0.002442
 **** Fit      -0.001540
 **** Fit      -0.000819
 **** Fit      -0.000224
 **** Fit       0.000306
 **** Fit      -0.013767
 **** Fit      -0.010315
 **** Fit      -0.007706
 **** Fit      -0.005744
 **** Fit      -0.004270
 **** Fit      -0.003166
 **** Fit      -0.002339
 **** Fit      -0.001715
 **** Fit      -0.001229
 **** Fit      -0.000820
 **** Fit      -0.015949
 **** Fit      -0.011954
 **** Fit      -0.009074
 **** Fit      -0.006980
 **** Fit      -0.005454
 **** Fit      -0.004348
 **** Fit      -0.003556
 **** Fit      -0.002998
 **** Fit      -0.002608
 **** Fit      -0.002325
 **** Fit      -0.023633
 **** Fit      -0.017516
 **** Fit      -0.013258
 **** Fit      -0.010254
 **** Fit      -0.008120
 **** Fit      -0.006611
 **** Fit      -0.005565
 **** Fit      -0.004869
 **** Fit      -0.004439
 **** Fit      -0.004207
 **** Fit      -0.004110
 **** Fit      -0.021295
 **** Fit      -0.016215
 **** Fit      -0.012680
 **** Fit      -0.010216
 **** Fit      -0.008520
 **** Fit      -0.007395
 **** Fit      -0.006708
 **** Fit      -0.006362
 **** Fit      -0.006288
 **** Fit      -0.006424
 **** Fit      -0.024598
 **** Fit      -0.019090
 **** Fit      -0.015219
 **** Fit      -0.012531
 **** Fit      -0.010715
 **** Fit      -0.009561
 **** Fit      -0.008931
 **** Fit      -0.008729
 **** Fit      -0.008892
 **** Fit      -0.009378
 **** Fit      -0.028514
 **** Fit      -0.022396
 **** Fit      -0.018045
 **** Fit      -0.015068
 **** Fit      -0.013145
 **** Fit      -0.012051
 **** Fit      -0.011638
 **** Fit      -0.011819
 **** Fit      -0.012563
 **** Fit      -0.032144
 **** Fit      -0.025836
 **** Fit      -0.021181
 **** Fit      -0.018021
 **** Fit      -0.016107
 **** Fit      -0.015234
 **** Fit      -0.015282
 **** Fit      -0.016226
 **** Fit      -0.018168
 **** Fit      -0.033289
 **** Fit      -0.027288
 **** Fit      -0.023021
 **** Fit      -0.020479
 **** Fit      -0.019508
 **** Fit      -0.020027
 **** Fit      -0.022151
 **** Fit      -0.032771
 **** Fit      -0.027519
 **** Fit      -0.025120
 **** Fit      -0.025681
 **** Fit      -0.029611
 **** Fit      -0.033480
 **** Fit      -0.032803
 **** Fit       0.018317
 **** Fit       0.016713
 **** Fit       0.018952
 **** Fit       0.020150
 **** Fit       0.020311
 **** Fit       0.011057
 **** Fit       0.014442
 **** Fit       0.017422
 **** Fit       0.019570
 **** Fit       0.020816
 **** Fit       0.021247
 **** Fit       0.021071
 **** Fit       0.020570
 **** Fit       0.007356
 **** Fit       0.011896
 **** Fit       0.015666
 **** Fit       0.018496
 **** Fit       0.020430
 **** Fit       0.021545
 **** Fit       0.021925
 **** Fit       0.021717
 **** Fit       0.021159
 **** Fit       0.020548
 **** Fit       0.003377
 **** Fit       0.009315
 **** Fit       0.013953
 **** Fit       0.017384
 **** Fit       0.019830
 **** Fit       0.021465
 **** Fit       0.022349
 **** Fit       0.022512
 **** Fit       0.022068
 **** Fit       0.021237
 **** Fit       0.020306
 **** Fit      -0.003575
 **** Fit      -0.000455
 **** Fit       0.006852
 **** Fit       0.012287
 **** Fit       0.016188
 **** Fit       0.018982
 **** Fit       0.021026
 **** Fit       0.022445
 **** Fit       0.023164
 **** Fit       0.023114
 **** Fit       0.022384
 **** Fit       0.021204
 **** Fit       0.019849
 **** Fit       0.018608
 **** Fit      -0.003556
 **** Fit       0.021947
 **** Fit       0.020030
 **** Fit       0.021173
 **** Fit       0.019520
 **** Fit       0.020982
 **** Fit       0.016866
 **** Fit       0.016768
 **** Fit       0.017542
 **** Fit       0.018984
 **** Fit       0.021283
 **** Fit       0.014501
 **** Fit       0.014806
 **** Fit       0.015461
 **** Fit       0.016352
 **** Fit       0.017449
 **** Fit       0.018825
 **** Fit       0.020745
 **** Fit       0.012953
 **** Fit       0.013423
 **** Fit       0.014073
 **** Fit       0.014828
 **** Fit       0.015648
 **** Fit       0.016522
 **** Fit       0.017480
 **** Fit       0.018615
 **** Fit       0.020175
 **** Fit       0.011900
 **** Fit       0.012447
 **** Fit       0.013096
 **** Fit       0.013790
 **** Fit       0.014493
 **** Fit       0.015184
 **** Fit       0.015851
 **** Fit       0.016489
 **** Fit       0.017098
 **** Fit       0.017699
 **** Fit       0.010665
 **** Fit       0.011089
 **** Fit       0.011638
 **** Fit       0.012246
 **** Fit       0.012870
 **** Fit       0.013481
 **** Fit       0.014055
 **** Fit       0.014574
 **** Fit       0.015013
 **** Fit       0.015331
 **** Fit       0.015445
 **** Fit       0.015185
 **** Fit       0.010084
 **** Fit       0.010576
 **** Fit       0.011138
 **** Fit       0.011723
 **** Fit       0.012296
 **** Fit       0.012833
 **** Fit       0.013312
 **** Fit       0.013709
 **** Fit       0.013990
 **** Fit       0.014090
 **** Fit       0.013879
 **** Fit       0.013066
 **** Fit       0.009627
 **** Fit       0.010120
 **** Fit       0.010646
 **** Fit       0.011169
 **** Fit       0.011665
 **** Fit       0.012111
 **** Fit       0.012488
 **** Fit       0.012771
 **** Fit       0.012925
 **** Fit       0.012881
 **** Fit       0.012508
 **** Fit       0.011516
 **** Fit       0.009293
 **** Fit       0.009754
 **** Fit       0.010218
 **** Fit       0.010659
 **** Fit       0.011056
 **** Fit       0.011391
 **** Fit       0.011644
 **** Fit       0.011789
 **** Fit       0.011785
 **** Fit       0.011561
 **** Fit       0.010971
 **** Fit       0.009111
 **** Fit       0.009507
 **** Fit       0.009875
 **** Fit       0.010194
 **** Fit       0.010443
 **** Fit       0.010604
 **** Fit       0.010651
 **** Fit       0.010550
 **** Fit       0.010240
 **** Fit       0.009607
 **** Fit       0.008869
 **** Fit       0.009126
 **** Fit       0.009323
 **** Fit       0.009440
 **** Fit       0.009457
 **** Fit       0.009355
 **** Fit       0.009110
 **** Fit       0.008276
 **** Fit       0.008309
 **** Fit       0.008260
 **** Fit       0.001555
 **** Fit       0.002677
 **** Fit       0.003602
 **** Fit       0.004363
 **** Fit       0.004980
 **** Fit       0.005464
 **** Fit       0.005822
 **** Fit       0.006060
 **** Fit       0.006176
 **** Fit       0.006166
 **** Fit       0.006019
 **** Fit      -0.002698
 **** Fit      -0.000688
 **** Fit       0.000896
 **** Fit       0.002160
 **** Fit       0.003170
 **** Fit       0.003965
 **** Fit       0.004571
 **** Fit       0.005001
 **** Fit       0.005265
 **** Fit       0.005363
 **** Fit       0.005292
 **** Fit       0.005040
 **** Fit       0.004580
 **** Fit       0.003872
 **** Fit      -0.003596
 **** Fit      -0.001405
 **** Fit       0.000308
 **** Fit       0.001651
 **** Fit       0.002695
 **** Fit       0.003482
 **** Fit       0.004038
 **** Fit       0.004380
 **** Fit       0.004511
 **** Fit       0.004428
 **** Fit       0.004115
 **** Fit       0.003541
 **** Fit       0.002645
 **** Fit       0.001315
 **** Fit      -0.000657
 **** Fit      -0.010198
 **** Fit      -0.006437
 **** Fit      -0.004398
 **** Fit      -0.001964
 **** Fit      -0.000112
 **** Fit       0.001286
 **** Fit       0.002309
 **** Fit       0.003003
 **** Fit       0.003393
 **** Fit       0.003487
 **** Fit       0.003274
 **** Fit       0.002721
 **** Fit       0.001759
 **** Fit       0.000257
 **** Fit      -0.002025
 **** Fit      -0.005533
 **** Fit      -0.017975
 **** Fit      -0.011963
 **** Fit      -0.007620
 **** Fit      -0.005187
 **** Fit      -0.002569
 **** Fit      -0.000642
 **** Fit       0.000732
 **** Fit       0.001634
 **** Fit       0.002108
 **** Fit       0.002163
 **** Fit       0.001778
 **** Fit       0.000888
 **** Fit      -0.000636
 **** Fit      -0.003037
 **** Fit      -0.006728
 **** Fit      -0.012350
 **** Fit      -0.020000
 **** Fit      -0.013506
 **** Fit      -0.008720
 **** Fit      -0.006007
 **** Fit      -0.003185
 **** Fit      -0.001247
 **** Fit      -0.000052
 **** Fit       0.000471
 **** Fit       0.000328
 **** Fit      -0.000544
 **** Fit      -0.002304
 **** Fit      -0.005241
 **** Fit      -0.009775
 **** Fit      -0.015177
 **** Fit      -0.009927
 **** Fit      -0.006865
 **** Fit      -0.003809
 **** Fit      -0.002128
 **** Fit      -0.001749
 **** Fit      -0.002729
 **** Fit      -0.005295
 **** Fit      -0.009724
 **** Fit      -0.015633
 **** Fit      -0.016753
 **** Fit      -0.011348
 **** Fit      -0.007737
 **** Fit      -0.004884
 **** Fit      -0.005380
 **** Fit      -0.009271
 **** Fit      -0.013574
 **** Fit      -0.012351
 **** Fit      -0.008568
 **** Fit       0.012667
 **** Fit       0.008284
 **** Fit       0.011346
 **** Fit       0.008042
 **** Fit       0.005391
 **** Fit       0.007910
 **** Fit       0.010380
 **** Fit       0.001755
 **** Fit       0.002876
 **** Fit       0.003518
 **** Fit       0.005877
 **** Fit       0.007826
 **** Fit       0.009643
 **** Fit      -0.005946
 **** Fit      -0.002874
 **** Fit       0.000571
 **** Fit       0.002323
 **** Fit       0.004602
 **** Fit       0.006375
 **** Fit       0.007858
 **** Fit       0.009275
 **** Fit      -0.009716
 **** Fit      -0.004671
 **** Fit      -0.000693
 **** Fit       0.001553
 **** Fit       0.003747
 **** Fit       0.005416
 **** Fit       0.006747
 **** Fit       0.007911
 **** Fit       0.009083
 **** Fit      -0.010863
 **** Fit      -0.005403
 **** Fit      -0.001396
 **** Fit       0.001023
 **** Fit       0.003063
 **** Fit       0.004619
 **** Fit       0.005840
 **** Fit       0.006856
 **** Fit       0.007792
 **** Fit      -0.017327
 **** Fit      -0.010384
 **** Fit      -0.005366
 **** Fit      -0.001696
 **** Fit       0.000597
 **** Fit       0.002550
 **** Fit       0.004039
 **** Fit       0.005200
 **** Fit       0.006147
 **** Fit       0.006987
 **** Fit      -0.016745
 **** Fit      -0.010199
 **** Fit      -0.005470
 **** Fit      -0.001994
 **** Fit       0.000175
 **** Fit       0.002005
 **** Fit       0.003417
 **** Fit       0.004524
 **** Fit       0.005423
 **** Fit       0.006204
 **** Fit      -0.015166
 **** Fit      -0.009538
 **** Fit      -0.005358
 **** Fit      -0.002214
 **** Fit      -0.000311
 **** Fit       0.001424
 **** Fit       0.002781
 **** Fit       0.003858
 **** Fit       0.004739
 **** Fit       0.005504
 **** Fit      -0.020308
 **** Fit      -0.013989
 **** Fit      -0.009140
 **** Fit      -0.005416
 **** Fit      -0.002541
 **** Fit      -0.000911
 **** Fit       0.000810
 **** Fit       0.002169
 **** Fit       0.003258
 **** Fit       0.004165
 **** Fit      -0.019519
 **** Fit      -0.013923
 **** Fit      -0.009436
 **** Fit      -0.005890
 **** Fit      -0.003101
 **** Fit      -0.001653
 **** Fit       0.000110
 **** Fit       0.001517
 **** Fit       0.002667
 **** Fit      -0.019763
 **** Fit      -0.014533
 **** Fit      -0.010190
 **** Fit      -0.006679
 **** Fit      -0.003876
 **** Fit      -0.002547
 **** Fit      -0.000712
 **** Fit       0.000785
 **** Fit      -0.015590
 **** Fit      -0.011228
 **** Fit      -0.007685
 **** Fit      -0.004833
 **** Fit      -0.003584
 **** Fit      -0.009449
 **** Fit      -0.006178
 -----------------------------------------------------------------
 Leave Link  602 at Sat Dec  7 00:37:03 2019, MaxMem=   33554432 cpu:       5.4

 Test job not archived.
 1\1\GINC-MOSURA\FOpt\RHF\6-31G(d)\C20H36N4O4\MARIE\07-Dec-2019\0\\#HF/
 6-31G* SCF=tight Test Pop=MK iop(6/33=2) iop(6/42=6) opt\\remark line 
 goes here\\0,1\C,7.3524346205,-2.6872461737,-0.0337004594\N,6.19111925
 96,-1.8258100809,0.0663147277\C,6.3429565258,-0.5308923457,0.410029838
 9\O,7.3943087321,-0.0855908036,0.787665092\C,5.091780632,0.3866517205,
 0.4205348175\C,4.793445545,0.6621666903,1.9026847472\C,3.8578162141,-0
 .2148381744,-0.2858703716\C,2.6216407651,0.6903120614,-0.3193844098\C,
 1.4876829429,0.1306966189,-1.196816325\C,0.9418756843,-1.196262017,-0.
 7279590245\C,-0.1810565999,-1.4272012185,-0.0674051676\C,-1.2198101442
 ,-0.4346313085,0.3857227092\C,-2.5924528436,-0.709704166,-0.245269282\
 C,-3.6482248436,0.2800772824,0.2541721977\C,-5.0970527225,0.0553559745
 ,-0.2452358069\C,-5.1881228623,0.1350027773,-1.7721132146\N,-5.8938170
 588,1.1194173125,0.3808373203\C,-7.2406310949,1.2519999222,0.21683372\
 C,-7.8120029846,2.588819256,0.6407246316\O,-7.9281838292,0.372815957,-
 0.2193491416\C,-5.5605867879,-1.3339173529,0.235141807\O,-5.4696666226
 ,-2.2913803461,-0.4826242032\N,-5.9399983941,-1.4271555011,1.529138582
 3\C,-6.5009430011,-2.6625714469,2.034620112\N,5.4791311636,1.657959930
 4,-0.1848964519\C,6.0602510104,1.7141071862,-1.4149120124\C,6.72212462
 32,3.0298972434,-1.7555945285\O,6.053095479,0.7853339526,-2.1762265497
 \H,7.9127733387,-2.6500809947,0.8885387911\H,7.0156037712,-3.701991271
 7,-0.2007898921\H,8.0063373221,-2.3893465043,-0.8458394826\H,5.4014715
 176,-2.0721165889,-0.4814120446\H,4.0150114994,1.4083739517,2.00617881
 11\H,5.686289105,1.0143866443,2.404040757\H,4.4637431206,-0.2450333246
 ,2.3963954949\H,3.5999239248,-1.1380643147,0.2244823081\H,4.1288055501
 ,-0.4628973526,-1.3046523065\H,2.9022498505,1.6648761656,-0.7036749894
 \H,2.2360608996,0.8417752381,0.6842205665\H,1.8564711591,0.0149348267,
 -2.2136486991\H,0.696056338,0.8696311286,-1.2447947378\H,1.5525848656,
 -2.0533452843,-0.9646273385\H,-0.4072720877,-2.4527050985,0.1827040264
 \H,-1.3107752456,-0.4988347063,1.4693044124\H,-0.9105209767,0.58118503
 19,0.1649818635\H,-2.8966156927,-1.7258898531,-0.021394952\H,-2.500689
 6801,-0.6472855584,-1.3240168426\H,-3.6615106565,0.2700186971,1.340596
 3819\H,-3.3527079567,1.2845947253,-0.0468569052\H,-6.2164928815,0.0519
 224645,-2.0935373836\H,-4.6307464719,-0.6642145521,-2.2357006128\H,-4.
 7889905379,1.0880990151,-2.1082336899\H,-5.3933695675,1.9460274623,0.6
 210546583\H,-7.3142023937,2.9890946528,1.5170316091\H,-7.6933007837,3.
 3000997477,-0.1712426028\H,-8.86669368,2.470881496,0.8420480351\H,-6.2
 033823379,-0.5844738092,1.983056768\H,-5.8385092346,-3.4834939443,1.80
 4140967\H,-6.6012905901,-2.5831620782,3.1095190421\H,-7.4728651689,-2.
 8721459139,1.6008271933\H,5.7679534965,2.361629203,0.4573011891\H,6.17
 78894936,3.8770051869,-1.3538158983\H,6.7985248719,3.1188107052,-2.829
 5284985\H,7.7230724109,3.0343218567,-1.3347193532\\Version=EM64L-G09Re
 vA.02\State=1-A\HF=-1295.6288433\RMSD=5.828e-09\RMSF=1.744e-06\Dipole=
 -0.2763333,2.1184007,1.6626982\Quadrupole=-28.6480396,21.8132716,6.834
 768,-19.1348309,-14.5528388,-2.0066701\PG=C01 [X(C20H36N4O4)]\\@


 TO DRY ONE'S EYES AND LAUGH AT A FALL,
 AND BAFFLED, GET UP AND BEGIN AGAIN.
           R. BROWNING
 Job cpu time:  0 days  2 hours 34 minutes 21.9 seconds.
 File lengths (MBytes):  RWF=    156 Int=      0 D2E=      0 Chk=     19 Scr=      1
 Normal termination of Gaussian 09 at Sat Dec  7 00:37:03 2019.
