 Entering Gaussian System, Link 0=g09
 Input=16.gau
 Output=16.log
 Initial command:
 /home/marie/Utilities//g09/l1.exe /tmp/g09/Gau-9473.inp -scrdir=/tmp/g09/
 Entering Link 1 = /home/marie/Utilities//g09/l1.exe PID=      9475.
  
 Copyright (c) 1988,1990,1992,1993,1995,1998,2003,2009, Gaussian, Inc.
                  All Rights Reserved.
  
 This is part of the Gaussian(R) 09 program.  It is based on
 the Gaussian(R) 03 system (copyright 2003, Gaussian, Inc.),
 the Gaussian(R) 98 system (copyright 1998, Gaussian, Inc.),
 the Gaussian(R) 94 system (copyright 1995, Gaussian, Inc.),
 the Gaussian 92(TM) system (copyright 1992, Gaussian, Inc.),
 the Gaussian 90(TM) system (copyright 1990, Gaussian, Inc.),
 the Gaussian 88(TM) system (copyright 1988, Gaussian, Inc.),
 the Gaussian 86(TM) system (copyright 1986, Carnegie Mellon
 University), and the Gaussian 82(TM) system (copyright 1983,
 Carnegie Mellon University). Gaussian is a federally registered
 trademark of Gaussian, Inc.
  
 This software contains proprietary and confidential information,
 including trade secrets, belonging to Gaussian, Inc.
  
 This software is provided under written license and may be
 used, copied, transmitted, or stored only in accord with that
 written license.
  
 The following legend is applicable only to US Government
 contracts under FAR:
  
                    RESTRICTED RIGHTS LEGEND
  
 Use, reproduction and disclosure by the US Government is
 subject to restrictions as set forth in subparagraphs (a)
 and (c) of the Commercial Computer Software - Restricted
 Rights clause in FAR 52.227-19.
  
 Gaussian, Inc.
 340 Quinnipiac St., Bldg. 40, Wallingford CT 06492
  
  
 ---------------------------------------------------------------
 Warning -- This program may not be used in any manner that
 competes with the business of Gaussian, Inc. or will provide
 assistance to any competitor of Gaussian, Inc.  The licensee
 of this program is prohibited from giving any competitor of
 Gaussian, Inc. access to this program.  By using this program,
 the user acknowledges that Gaussian, Inc. is engaged in the
 business of creating and licensing software in the field of
 computational chemistry and represents and warrants to the
 licensee that it is not a competitor of Gaussian, Inc. and that
 it will not use this program in any manner prohibited above.
 ---------------------------------------------------------------
  

 Cite this work as:
 Gaussian 09, Revision A.02,
 M. J. Frisch, G. W. Trucks, H. B. Schlegel, G. E. Scuseria, 
 M. A. Robb, J. R. Cheeseman, G. Scalmani, V. Barone, B. Mennucci, 
 G. A. Petersson, H. Nakatsuji, M. Caricato, X. Li, H. P. Hratchian, 
 A. F. Izmaylov, J. Bloino, G. Zheng, J. L. Sonnenberg, M. Hada, 
 M. Ehara, K. Toyota, R. Fukuda, J. Hasegawa, M. Ishida, T. Nakajima, 
 Y. Honda, O. Kitao, H. Nakai, T. Vreven, J. A. Montgomery, Jr., 
 J. E. Peralta, F. Ogliaro, M. Bearpark, J. J. Heyd, E. Brothers, 
 K. N. Kudin, V. N. Staroverov, R. Kobayashi, J. Normand, 
 K. Raghavachari, A. Rendell, J. C. Burant, S. S. Iyengar, J. Tomasi, 
 M. Cossi, N. Rega, J. M. Millam, M. Klene, J. E. Knox, J. B. Cross, 
 V. Bakken, C. Adamo, J. Jaramillo, R. Gomperts, R. E. Stratmann, 
 O. Yazyev, A. J. Austin, R. Cammi, C. Pomelli, J. W. Ochterski, 
 R. L. Martin, K. Morokuma, V. G. Zakrzewski, G. A. Voth, 
 P. Salvador, J. J. Dannenberg, S. Dapprich, A. D. Daniels, 
 O. Farkas, J. B. Foresman, J. V. Ortiz, J. Cioslowski, 
 and D. J. Fox, Gaussian, Inc., Wallingford CT, 2009.
 
 ******************************************
 Gaussian 09:  EM64L-G09RevA.02 11-Jun-2009
                 6-Dec-2019 
 ******************************************
 %chk=conf16
 ------------------------------------------------------------
 #HF/6-31G* SCF=tight Test Pop=MK iop(6/33=2) iop(6/42=6) opt
 ------------------------------------------------------------
 1/18=20,19=15,38=1/1,3;
 2/9=110,12=2,17=6,18=5,40=1/2;
 3/5=1,6=6,7=1,11=9,16=1,25=1,30=1,71=1/1,2,3;
 4//1;
 5/5=2,32=2,38=5/2;
 6/7=2,8=2,9=2,10=2,15=8,20=1,28=1,33=2,42=6/1,2;
 7//1,2,3,16;
 1/18=20,19=15/3(2);
 2/9=110/2;
 99//99;
 2/9=110/2;
 3/5=1,6=6,7=1,11=9,16=1,25=1,30=1,71=1/1,2,3;
 4/5=5,16=3/1;
 5/5=2,32=2,38=5/2;
 7//1,2,3,16;
 1/18=20,19=15/3(-5);
 2/9=110/2;
 6/7=2,8=2,9=2,10=2,15=8,19=2,20=1,28=1,33=2,42=6/1,2;
 99/9=1/99;
 ---------------------
 remark line goes here
 ---------------------
 Symbolic Z-matrix:
 Charge =  0 Multiplicity = 1
 C                     5.307    -3.87      0.12 
 N                     4.883    -2.514    -0.115 
 C                     5.147    -1.534     0.829 
 O                     5.508    -1.8       1.974 
 C                     4.735    -0.095     0.38 
 C                     5.476     0.963     1.21 
 C                     3.193     0.032     0.563 
 C                     2.678    -0.07      2.007 
 C                     1.147    -0.065     2.091 
 C                     0.541     1.246     1.672 
 C                    -0.252     1.473     0.613 
 C                    -0.675     0.477    -0.43 
 C                    -2.055    -0.133    -0.163 
 C                    -3.19      0.903    -0.197 
 C                    -4.615     0.296    -0.065 
 C                    -4.744    -0.469     1.263 
 N                    -4.877    -0.554    -1.248 
 C                    -5.948    -1.421    -1.327 
 C                    -6.172    -1.973    -2.71 
 O                    -6.67     -1.729    -0.386 
 C                    -5.615     1.494    -0.17 
 O                    -6.134     1.81     -1.244 
 N                    -5.772     2.261     0.969 
 C                    -6.714     3.353     0.986 
 N                     4.998     0.106    -1.075 
 C                     6.266     0.039    -1.613 
 C                     6.362     0.554    -3.025 
 O                     7.237    -0.414    -1.022 
 H                     4.871    -4.509    -0.651 
 H                     6.398    -3.913     0.067 
 H                     4.978    -4.2       1.109 
 H                     4.878    -2.181    -1.07 
 H                     6.56      0.902     1.069 
 H                     5.165     1.974     0.925 
 H                     5.301     0.842     2.284 
 H                     2.871     0.994     0.143 
 H                     2.694    -0.74     -0.041 
 H                     3.072     0.757     2.609 
 H                     3.033    -0.999     2.466 
 H                     0.854    -0.247     3.133 
 H                     0.743    -0.904     1.516 
 H                     0.761     2.087     2.33 
 H                    -0.624     2.487     0.469 
 H                     0.061    -0.33     -0.514 
 H                    -0.673     0.977    -1.407 
 H                    -2.236    -0.901    -0.923 
 H                    -2.04     -0.643     0.807 
 H                    -3.123     1.468    -1.137 
 H                    -3.036     1.635     0.607 
 H                    -4.292    -1.465     1.199 
 H                    -4.249     0.066     2.082 
 H                    -5.789    -0.593     1.564 
 H                    -4.69     -0.081    -2.125 
 H                    -6.43     -3.034    -2.636 
 H                    -6.991    -1.427    -3.185 
 H                    -5.273    -1.884    -3.327 
 H                    -5.527     1.853     1.861 
 H                    -6.595     3.968     0.089 
 H                    -6.53      3.956     1.878 
 H                    -7.727     2.943     1.016 
 H                     4.364     0.741    -1.543 
 H                     6.859     1.527    -3.018 
 H                     6.941    -0.153    -3.625 
 H                     5.375     0.66     -3.484 
 

 GradGradGradGradGradGradGradGradGradGradGradGradGradGradGradGradGradGrad
 Berny optimization.
 Initialization pass.
                           ----------------------------
                           !    Initial Parameters    !
                           ! (Angstroms and Degrees)  !
 --------------------------                            --------------------------
 ! Name  Definition              Value          Derivative Info.                !
 --------------------------------------------------------------------------------
 ! R1    R(1,2)                  1.44           estimate D2E/DX2                !
 ! R2    R(1,29)                 1.0922         estimate D2E/DX2                !
 ! R3    R(1,30)                 1.0931         estimate D2E/DX2                !
 ! R4    R(1,31)                 1.0933         estimate D2E/DX2                !
 ! R5    R(2,3)                  1.3861         estimate D2E/DX2                !
 ! R6    R(2,32)                 1.0114         estimate D2E/DX2                !
 ! R7    R(3,4)                  1.2297         estimate D2E/DX2                !
 ! R8    R(3,5)                  1.5627         estimate D2E/DX2                !
 ! R9    R(5,6)                  1.5354         estimate D2E/DX2                !
 ! R10   R(5,7)                  1.558          estimate D2E/DX2                !
 ! R11   R(5,25)                 1.4922         estimate D2E/DX2                !
 ! R12   R(6,33)                 1.0948         estimate D2E/DX2                !
 ! R13   R(6,34)                 1.0955         estimate D2E/DX2                !
 ! R14   R(6,35)                 1.0949         estimate D2E/DX2                !
 ! R15   R(7,8)                  1.5365         estimate D2E/DX2                !
 ! R16   R(7,36)                 1.098          estimate D2E/DX2                !
 ! R17   R(7,37)                 1.0999         estimate D2E/DX2                !
 ! R18   R(8,9)                  1.5333         estimate D2E/DX2                !
 ! R19   R(8,38)                 1.0962         estimate D2E/DX2                !
 ! R20   R(8,39)                 1.0953         estimate D2E/DX2                !
 ! R21   R(9,10)                 1.5038         estimate D2E/DX2                !
 ! R22   R(9,40)                 1.0976         estimate D2E/DX2                !
 ! R23   R(9,41)                 1.0944         estimate D2E/DX2                !
 ! R24   R(10,11)                1.3423         estimate D2E/DX2                !
 ! R25   R(10,42)                1.0902         estimate D2E/DX2                !
 ! R26   R(11,12)                1.5029         estimate D2E/DX2                !
 ! R27   R(11,43)                1.0896         estimate D2E/DX2                !
 ! R28   R(12,13)                1.5322         estimate D2E/DX2                !
 ! R29   R(12,44)                1.0954         estimate D2E/DX2                !
 ! R30   R(12,45)                1.0975         estimate D2E/DX2                !
 ! R31   R(13,14)                1.5371         estimate D2E/DX2                !
 ! R32   R(13,46)                1.0955         estimate D2E/DX2                !
 ! R33   R(13,47)                1.096          estimate D2E/DX2                !
 ! R34   R(14,15)                1.5545         estimate D2E/DX2                !
 ! R35   R(14,48)                1.0988         estimate D2E/DX2                !
 ! R36   R(14,49)                1.0982         estimate D2E/DX2                !
 ! R37   R(15,16)                1.538          estimate D2E/DX2                !
 ! R38   R(15,17)                1.4801         estimate D2E/DX2                !
 ! R39   R(15,21)                1.564          estimate D2E/DX2                !
 ! R40   R(16,50)                1.0956         estimate D2E/DX2                !
 ! R41   R(16,51)                1.0964         estimate D2E/DX2                !
 ! R42   R(16,52)                1.0945         estimate D2E/DX2                !
 ! R43   R(17,18)                1.3802         estimate D2E/DX2                !
 ! R44   R(17,53)                1.0138         estimate D2E/DX2                !
 ! R45   R(18,19)                1.5058         estimate D2E/DX2                !
 ! R46   R(18,20)                1.2254         estimate D2E/DX2                !
 ! R47   R(19,54)                1.0944         estimate D2E/DX2                !
 ! R48   R(19,55)                1.0929         estimate D2E/DX2                !
 ! R49   R(19,56)                1.094          estimate D2E/DX2                !
 ! R50   R(21,22)                1.234          estimate D2E/DX2                !
 ! R51   R(21,23)                1.3821         estimate D2E/DX2                !
 ! R52   R(23,24)                1.4423         estimate D2E/DX2                !
 ! R53   R(23,57)                1.011          estimate D2E/DX2                !
 ! R54   R(24,58)                1.0941         estimate D2E/DX2                !
 ! R55   R(24,59)                1.0923         estimate D2E/DX2                !
 ! R56   R(24,60)                1.0932         estimate D2E/DX2                !
 ! R57   R(25,26)                1.379          estimate D2E/DX2                !
 ! R58   R(25,61)                1.012          estimate D2E/DX2                !
 ! R59   R(26,27)                1.506          estimate D2E/DX2                !
 ! R60   R(26,28)                1.2237         estimate D2E/DX2                !
 ! R61   R(27,62)                1.0926         estimate D2E/DX2                !
 ! R62   R(27,63)                1.0932         estimate D2E/DX2                !
 ! R63   R(27,64)                1.0937         estimate D2E/DX2                !
 ! A1    A(2,1,29)             108.5531         estimate D2E/DX2                !
 ! A2    A(2,1,30)             108.8438         estimate D2E/DX2                !
 ! A3    A(2,1,31)             110.0748         estimate D2E/DX2                !
 ! A4    A(29,1,30)            109.9489         estimate D2E/DX2                !
 ! A5    A(29,1,31)            109.9904         estimate D2E/DX2                !
 ! A6    A(30,1,31)            109.4102         estimate D2E/DX2                !
 ! A7    A(1,2,3)              119.9036         estimate D2E/DX2                !
 ! A8    A(1,2,32)             117.7473         estimate D2E/DX2                !
 ! A9    A(3,2,32)             114.2821         estimate D2E/DX2                !
 ! A10   A(2,3,4)              122.4885         estimate D2E/DX2                !
 ! A11   A(2,3,5)              113.9011         estimate D2E/DX2                !
 ! A12   A(4,3,5)              122.9651         estimate D2E/DX2                !
 ! A13   A(3,5,6)              110.608          estimate D2E/DX2                !
 ! A14   A(3,5,7)              107.5927         estimate D2E/DX2                !
 ! A15   A(3,5,25)             110.9611         estimate D2E/DX2                !
 ! A16   A(6,5,7)              110.9772         estimate D2E/DX2                !
 ! A17   A(6,5,25)             110.4405         estimate D2E/DX2                !
 ! A18   A(7,5,25)             106.1405         estimate D2E/DX2                !
 ! A19   A(5,6,33)             111.7053         estimate D2E/DX2                !
 ! A20   A(5,6,34)             110.9956         estimate D2E/DX2                !
 ! A21   A(5,6,35)             112.1473         estimate D2E/DX2                !
 ! A22   A(33,6,34)            107.3976         estimate D2E/DX2                !
 ! A23   A(33,6,35)            106.1665         estimate D2E/DX2                !
 ! A24   A(34,6,35)            108.1688         estimate D2E/DX2                !
 ! A25   A(5,7,8)              115.8945         estimate D2E/DX2                !
 ! A26   A(5,7,36)             108.4663         estimate D2E/DX2                !
 ! A27   A(5,7,37)             109.105          estimate D2E/DX2                !
 ! A28   A(8,7,36)             108.6247         estimate D2E/DX2                !
 ! A29   A(8,7,37)             108.5074         estimate D2E/DX2                !
 ! A30   A(36,7,37)            105.7745         estimate D2E/DX2                !
 ! A31   A(7,8,9)              112.7025         estimate D2E/DX2                !
 ! A32   A(7,8,38)             110.2168         estimate D2E/DX2                !
 ! A33   A(7,8,39)             109.9683         estimate D2E/DX2                !
 ! A34   A(9,8,38)             109.0473         estimate D2E/DX2                !
 ! A35   A(9,8,39)             107.6633         estimate D2E/DX2                !
 ! A36   A(38,8,39)            107.0527         estimate D2E/DX2                !
 ! A37   A(8,9,10)             112.9509         estimate D2E/DX2                !
 ! A38   A(8,9,40)             108.5426         estimate D2E/DX2                !
 ! A39   A(8,9,41)             109.7128         estimate D2E/DX2                !
 ! A40   A(10,9,40)            107.547          estimate D2E/DX2                !
 ! A41   A(10,9,41)            111.9114         estimate D2E/DX2                !
 ! A42   A(40,9,41)            105.8498         estimate D2E/DX2                !
 ! A43   A(9,10,11)            127.25           estimate D2E/DX2                !
 ! A44   A(9,10,42)            115.024          estimate D2E/DX2                !
 ! A45   A(11,10,42)           117.7039         estimate D2E/DX2                !
 ! A46   A(10,11,12)           126.9916         estimate D2E/DX2                !
 ! A47   A(10,11,43)           117.6011         estimate D2E/DX2                !
 ! A48   A(12,11,43)           115.3981         estimate D2E/DX2                !
 ! A49   A(11,12,13)           113.3524         estimate D2E/DX2                !
 ! A50   A(11,12,44)           110.6295         estimate D2E/DX2                !
 ! A51   A(11,12,45)           108.382          estimate D2E/DX2                !
 ! A52   A(13,12,44)           108.9774         estimate D2E/DX2                !
 ! A53   A(13,12,45)           109.7629         estimate D2E/DX2                !
 ! A54   A(44,12,45)           105.4342         estimate D2E/DX2                !
 ! A55   A(12,13,14)           113.1323         estimate D2E/DX2                !
 ! A56   A(12,13,46)           107.8786         estimate D2E/DX2                !
 ! A57   A(12,13,47)           109.0955         estimate D2E/DX2                !
 ! A58   A(14,13,46)           109.5817         estimate D2E/DX2                !
 ! A59   A(14,13,47)           110.0787         estimate D2E/DX2                !
 ! A60   A(46,13,47)           106.8595         estimate D2E/DX2                !
 ! A61   A(13,14,15)           114.3197         estimate D2E/DX2                !
 ! A62   A(13,14,48)           108.6915         estimate D2E/DX2                !
 ! A63   A(13,14,49)           109.2397         estimate D2E/DX2                !
 ! A64   A(15,14,48)           109.2279         estimate D2E/DX2                !
 ! A65   A(15,14,49)           109.0663         estimate D2E/DX2                !
 ! A66   A(48,14,49)           105.9639         estimate D2E/DX2                !
 ! A67   A(14,15,16)           110.147          estimate D2E/DX2                !
 ! A68   A(14,15,17)           108.5812         estimate D2E/DX2                !
 ! A69   A(14,15,21)           106.3384         estimate D2E/DX2                !
 ! A70   A(16,15,17)           112.9325         estimate D2E/DX2                !
 ! A71   A(16,15,21)           112.6642         estimate D2E/DX2                !
 ! A72   A(17,15,21)           105.8458         estimate D2E/DX2                !
 ! A73   A(15,16,50)           111.5385         estimate D2E/DX2                !
 ! A74   A(15,16,51)           111.3724         estimate D2E/DX2                !
 ! A75   A(15,16,52)           111.9553         estimate D2E/DX2                !
 ! A76   A(50,16,51)           107.5162         estimate D2E/DX2                !
 ! A77   A(50,16,52)           107.8757         estimate D2E/DX2                !
 ! A78   A(51,16,52)           106.3147         estimate D2E/DX2                !
 ! A79   A(15,17,18)           122.9469         estimate D2E/DX2                !
 ! A80   A(15,17,53)           113.0059         estimate D2E/DX2                !
 ! A81   A(18,17,53)           112.7486         estimate D2E/DX2                !
 ! A82   A(17,18,19)           113.4698         estimate D2E/DX2                !
 ! A83   A(17,18,20)           124.8289         estimate D2E/DX2                !
 ! A84   A(19,18,20)           121.7007         estimate D2E/DX2                !
 ! A85   A(18,19,54)           109.1683         estimate D2E/DX2                !
 ! A86   A(18,19,55)           109.1169         estimate D2E/DX2                !
 ! A87   A(18,19,56)           111.4642         estimate D2E/DX2                !
 ! A88   A(54,19,55)           109.6972         estimate D2E/DX2                !
 ! A89   A(54,19,56)           108.103          estimate D2E/DX2                !
 ! A90   A(55,19,56)           109.2711         estimate D2E/DX2                !
 ! A91   A(15,21,22)           121.5669         estimate D2E/DX2                !
 ! A92   A(15,21,23)           116.2552         estimate D2E/DX2                !
 ! A93   A(22,21,23)           121.8279         estimate D2E/DX2                !
 ! A94   A(21,23,24)           120.2702         estimate D2E/DX2                !
 ! A95   A(21,23,57)           118.3988         estimate D2E/DX2                !
 ! A96   A(24,23,57)           116.9637         estimate D2E/DX2                !
 ! A97   A(23,24,58)           110.1758         estimate D2E/DX2                !
 ! A98   A(23,24,59)           108.5166         estimate D2E/DX2                !
 ! A99   A(23,24,60)           108.7581         estimate D2E/DX2                !
 ! A100  A(58,24,59)           109.931          estimate D2E/DX2                !
 ! A101  A(58,24,60)           109.5176         estimate D2E/DX2                !
 ! A102  A(59,24,60)           109.9203         estimate D2E/DX2                !
 ! A103  A(5,25,26)            122.4064         estimate D2E/DX2                !
 ! A104  A(5,25,61)            115.1518         estimate D2E/DX2                !
 ! A105  A(26,25,61)           115.22           estimate D2E/DX2                !
 ! A106  A(25,26,27)           114.0642         estimate D2E/DX2                !
 ! A107  A(25,26,28)           124.0            estimate D2E/DX2                !
 ! A108  A(27,26,28)           121.9264         estimate D2E/DX2                !
 ! A109  A(26,27,62)           109.1177         estimate D2E/DX2                !
 ! A110  A(26,27,63)           109.0979         estimate D2E/DX2                !
 ! A111  A(26,27,64)           111.6601         estimate D2E/DX2                !
 ! A112  A(62,27,63)           109.7871         estimate D2E/DX2                !
 ! A113  A(62,27,64)           109.0802         estimate D2E/DX2                !
 ! A114  A(63,27,64)           108.0785         estimate D2E/DX2                !
 ! D1    D(29,1,2,3)           171.0646         estimate D2E/DX2                !
 ! D2    D(29,1,2,32)          -41.946          estimate D2E/DX2                !
 ! D3    D(30,1,2,3)           -69.2782         estimate D2E/DX2                !
 ! D4    D(30,1,2,32)           77.7111         estimate D2E/DX2                !
 ! D5    D(31,1,2,3)            50.6281         estimate D2E/DX2                !
 ! D6    D(31,1,2,32)         -162.3825         estimate D2E/DX2                !
 ! D7    D(1,2,3,4)            -13.8752         estimate D2E/DX2                !
 ! D8    D(1,2,3,5)            175.0867         estimate D2E/DX2                !
 ! D9    D(32,2,3,4)          -161.9412         estimate D2E/DX2                !
 ! D10   D(32,2,3,5)            27.0208         estimate D2E/DX2                !
 ! D11   D(2,3,5,6)           -160.1089         estimate D2E/DX2                !
 ! D12   D(2,3,5,7)             78.5273         estimate D2E/DX2                !
 ! D13   D(2,3,5,25)           -37.1796         estimate D2E/DX2                !
 ! D14   D(4,3,5,6)             28.9015         estimate D2E/DX2                !
 ! D15   D(4,3,5,7)            -92.4622         estimate D2E/DX2                !
 ! D16   D(4,3,5,25)           151.8308         estimate D2E/DX2                !
 ! D17   D(3,5,6,33)            62.2061         estimate D2E/DX2                !
 ! D18   D(3,5,6,34)          -177.9613         estimate D2E/DX2                !
 ! D19   D(3,5,6,35)           -56.8434         estimate D2E/DX2                !
 ! D20   D(7,5,6,33)          -178.4528         estimate D2E/DX2                !
 ! D21   D(7,5,6,34)           -58.6202         estimate D2E/DX2                !
 ! D22   D(7,5,6,35)            62.4977         estimate D2E/DX2                !
 ! D23   D(25,5,6,33)          -61.0252         estimate D2E/DX2                !
 ! D24   D(25,5,6,34)           58.8074         estimate D2E/DX2                !
 ! D25   D(25,5,6,35)          179.9253         estimate D2E/DX2                !
 ! D26   D(3,5,7,8)             64.0838         estimate D2E/DX2                !
 ! D27   D(3,5,7,36)          -173.4775         estimate D2E/DX2                !
 ! D28   D(3,5,7,37)           -58.7069         estimate D2E/DX2                !
 ! D29   D(6,5,7,8)            -57.049          estimate D2E/DX2                !
 ! D30   D(6,5,7,36)            65.3897         estimate D2E/DX2                !
 ! D31   D(6,5,7,37)          -179.8397         estimate D2E/DX2                !
 ! D32   D(25,5,7,8)          -177.0708         estimate D2E/DX2                !
 ! D33   D(25,5,7,36)          -54.6321         estimate D2E/DX2                !
 ! D34   D(25,5,7,37)           60.1385         estimate D2E/DX2                !
 ! D35   D(3,5,25,26)          -62.2754         estimate D2E/DX2                !
 ! D36   D(3,5,25,61)          148.8974         estimate D2E/DX2                !
 ! D37   D(6,5,25,26)           60.7505         estimate D2E/DX2                !
 ! D38   D(6,5,25,61)          -88.0767         estimate D2E/DX2                !
 ! D39   D(7,5,25,26)         -178.879          estimate D2E/DX2                !
 ! D40   D(7,5,25,61)           32.2938         estimate D2E/DX2                !
 ! D41   D(5,7,8,9)           -174.7264         estimate D2E/DX2                !
 ! D42   D(5,7,8,38)            63.1973         estimate D2E/DX2                !
 ! D43   D(5,7,8,39)           -54.597          estimate D2E/DX2                !
 ! D44   D(36,7,8,9)            62.9187         estimate D2E/DX2                !
 ! D45   D(36,7,8,38)          -59.1576         estimate D2E/DX2                !
 ! D46   D(36,7,8,39)         -176.9519         estimate D2E/DX2                !
 ! D47   D(37,7,8,9)           -51.6217         estimate D2E/DX2                !
 ! D48   D(37,7,8,38)         -173.698          estimate D2E/DX2                !
 ! D49   D(37,7,8,39)           68.5077         estimate D2E/DX2                !
 ! D50   D(7,8,9,10)           -66.7632         estimate D2E/DX2                !
 ! D51   D(7,8,9,40)           174.0688         estimate D2E/DX2                !
 ! D52   D(7,8,9,41)            58.8429         estimate D2E/DX2                !
 ! D53   D(38,8,9,10)           55.9704         estimate D2E/DX2                !
 ! D54   D(38,8,9,40)          -63.1977         estimate D2E/DX2                !
 ! D55   D(38,8,9,41)         -178.4235         estimate D2E/DX2                !
 ! D56   D(39,8,9,10)          171.7892         estimate D2E/DX2                !
 ! D57   D(39,8,9,40)           52.6212         estimate D2E/DX2                !
 ! D58   D(39,8,9,41)          -62.6047         estimate D2E/DX2                !
 ! D59   D(8,9,10,11)          115.1207         estimate D2E/DX2                !
 ! D60   D(8,9,10,42)          -66.6397         estimate D2E/DX2                !
 ! D61   D(40,9,10,11)        -125.1369         estimate D2E/DX2                !
 ! D62   D(40,9,10,42)          53.1027         estimate D2E/DX2                !
 ! D63   D(41,9,10,11)          -9.2922         estimate D2E/DX2                !
 ! D64   D(41,9,10,42)         168.9474         estimate D2E/DX2                !
 ! D65   D(9,10,11,12)          -2.5424         estimate D2E/DX2                !
 ! D66   D(9,10,11,43)         178.62           estimate D2E/DX2                !
 ! D67   D(42,10,11,12)        179.2594         estimate D2E/DX2                !
 ! D68   D(42,10,11,43)          0.4218         estimate D2E/DX2                !
 ! D69   D(10,11,12,13)         96.9524         estimate D2E/DX2                !
 ! D70   D(10,11,12,44)        -25.8004         estimate D2E/DX2                !
 ! D71   D(10,11,12,45)       -140.9356         estimate D2E/DX2                !
 ! D72   D(43,11,12,13)        -84.1879         estimate D2E/DX2                !
 ! D73   D(43,11,12,44)        153.0592         estimate D2E/DX2                !
 ! D74   D(43,11,12,45)         37.9241         estimate D2E/DX2                !
 ! D75   D(11,12,13,14)         63.3105         estimate D2E/DX2                !
 ! D76   D(11,12,13,46)       -175.3068         estimate D2E/DX2                !
 ! D77   D(11,12,13,47)        -59.5749         estimate D2E/DX2                !
 ! D78   D(44,12,13,14)       -173.0278         estimate D2E/DX2                !
 ! D79   D(44,12,13,46)        -51.6451         estimate D2E/DX2                !
 ! D80   D(44,12,13,47)         64.0869         estimate D2E/DX2                !
 ! D81   D(45,12,13,14)        -58.0291         estimate D2E/DX2                !
 ! D82   D(45,12,13,46)         63.3536         estimate D2E/DX2                !
 ! D83   D(45,12,13,47)        179.0855         estimate D2E/DX2                !
 ! D84   D(12,13,14,15)        174.446          estimate D2E/DX2                !
 ! D85   D(12,13,14,48)         52.1419         estimate D2E/DX2                !
 ! D86   D(12,13,14,49)        -63.0465         estimate D2E/DX2                !
 ! D87   D(46,13,14,15)         54.0283         estimate D2E/DX2                !
 ! D88   D(46,13,14,48)        -68.2759         estimate D2E/DX2                !
 ! D89   D(46,13,14,49)        176.5357         estimate D2E/DX2                !
 ! D90   D(47,13,14,15)        -63.2154         estimate D2E/DX2                !
 ! D91   D(47,13,14,48)        174.4805         estimate D2E/DX2                !
 ! D92   D(47,13,14,49)         59.292          estimate D2E/DX2                !
 ! D93   D(13,14,15,16)         59.4957         estimate D2E/DX2                !
 ! D94   D(13,14,15,17)        -64.6431         estimate D2E/DX2                !
 ! D95   D(13,14,15,21)       -178.1424         estimate D2E/DX2                !
 ! D96   D(48,14,15,16)       -178.4933         estimate D2E/DX2                !
 ! D97   D(48,14,15,17)         57.3679         estimate D2E/DX2                !
 ! D98   D(48,14,15,21)        -56.1314         estimate D2E/DX2                !
 ! D99   D(49,14,15,16)        -63.1061         estimate D2E/DX2                !
 ! D100  D(49,14,15,17)        172.7551         estimate D2E/DX2                !
 ! D101  D(49,14,15,21)         59.2559         estimate D2E/DX2                !
 ! D102  D(14,15,16,50)        -79.8015         estimate D2E/DX2                !
 ! D103  D(14,15,16,51)         40.3257         estimate D2E/DX2                !
 ! D104  D(14,15,16,52)        159.2073         estimate D2E/DX2                !
 ! D105  D(17,15,16,50)         41.7836         estimate D2E/DX2                !
 ! D106  D(17,15,16,51)        161.9108         estimate D2E/DX2                !
 ! D107  D(17,15,16,52)        -79.2075         estimate D2E/DX2                !
 ! D108  D(21,15,16,50)        161.6489         estimate D2E/DX2                !
 ! D109  D(21,15,16,51)        -78.2239         estimate D2E/DX2                !
 ! D110  D(21,15,16,52)         40.6578         estimate D2E/DX2                !
 ! D111  D(14,15,17,18)        168.1386         estimate D2E/DX2                !
 ! D112  D(14,15,17,53)        -50.9846         estimate D2E/DX2                !
 ! D113  D(16,15,17,18)         45.6736         estimate D2E/DX2                !
 ! D114  D(16,15,17,53)       -173.4496         estimate D2E/DX2                !
 ! D115  D(21,15,17,18)        -78.0379         estimate D2E/DX2                !
 ! D116  D(21,15,17,53)         62.8389         estimate D2E/DX2                !
 ! D117  D(14,15,21,22)         94.5167         estimate D2E/DX2                !
 ! D118  D(14,15,21,23)        -78.809          estimate D2E/DX2                !
 ! D119  D(16,15,21,22)       -144.7281         estimate D2E/DX2                !
 ! D120  D(16,15,21,23)         41.9463         estimate D2E/DX2                !
 ! D121  D(17,15,21,22)        -20.8481         estimate D2E/DX2                !
 ! D122  D(17,15,21,23)        165.8262         estimate D2E/DX2                !
 ! D123  D(15,17,18,19)        168.5115         estimate D2E/DX2                !
 ! D124  D(15,17,18,20)        -11.1921         estimate D2E/DX2                !
 ! D125  D(53,17,18,19)         27.5466         estimate D2E/DX2                !
 ! D126  D(53,17,18,20)       -152.1571         estimate D2E/DX2                !
 ! D127  D(17,18,19,54)        139.342          estimate D2E/DX2                !
 ! D128  D(17,18,19,55)       -100.7806         estimate D2E/DX2                !
 ! D129  D(17,18,19,56)         19.9909         estimate D2E/DX2                !
 ! D130  D(20,18,19,54)        -40.9439         estimate D2E/DX2                !
 ! D131  D(20,18,19,55)         78.9335         estimate D2E/DX2                !
 ! D132  D(20,18,19,56)       -160.295          estimate D2E/DX2                !
 ! D133  D(15,21,23,24)       -177.4059         estimate D2E/DX2                !
 ! D134  D(15,21,23,57)        -21.5673         estimate D2E/DX2                !
 ! D135  D(22,21,23,24)          9.2873         estimate D2E/DX2                !
 ! D136  D(22,21,23,57)        165.126          estimate D2E/DX2                !
 ! D137  D(21,23,24,58)        -47.2844         estimate D2E/DX2                !
 ! D138  D(21,23,24,59)       -167.6866         estimate D2E/DX2                !
 ! D139  D(21,23,24,60)         72.7615         estimate D2E/DX2                !
 ! D140  D(57,23,24,58)        156.5418         estimate D2E/DX2                !
 ! D141  D(57,23,24,59)         36.1397         estimate D2E/DX2                !
 ! D142  D(57,23,24,60)        -83.4123         estimate D2E/DX2                !
 ! D143  D(5,25,26,27)        -167.6187         estimate D2E/DX2                !
 ! D144  D(5,25,26,28)          13.4843         estimate D2E/DX2                !
 ! D145  D(61,25,26,27)        -18.8109         estimate D2E/DX2                !
 ! D146  D(61,25,26,28)        162.292          estimate D2E/DX2                !
 ! D147  D(25,26,27,62)        106.0786         estimate D2E/DX2                !
 ! D148  D(25,26,27,63)       -133.9763         estimate D2E/DX2                !
 ! D149  D(25,26,27,64)        -14.5798         estimate D2E/DX2                !
 ! D150  D(28,26,27,62)        -74.9987         estimate D2E/DX2                !
 ! D151  D(28,26,27,63)         44.9464         estimate D2E/DX2                !
 ! D152  D(28,26,27,64)        164.3429         estimate D2E/DX2                !
 --------------------------------------------------------------------------------
 Trust Radius=3.00D-01 FncErr=1.00D-07 GrdErr=1.00D-07
 Number of steps in this run= 339 maximum allowed number of steps= 384.
 GradGradGradGradGradGradGradGradGradGradGradGradGradGradGradGradGradGrad

 Stoichiometry    C20H36N4O4
 Framework group  C1[X(C20H36N4O4)]
 Deg. of freedom   186
 Full point group                 C1      NOp   1
 Largest Abelian subgroup         C1      NOp   1
 Largest concise Abelian subgroup C1      NOp   1
                         Standard orientation:                         
 ---------------------------------------------------------------------
 Center     Atomic      Atomic             Coordinates (Angstroms)
 Number     Number       Type             X           Y           Z
 ---------------------------------------------------------------------
      1          6           0        5.694453    2.672777   -1.775941
      2          7           0        5.120739    1.707441   -0.874433
      3          6           0        5.296019    0.352755   -1.109664
      4          8           0        5.707358   -0.083401   -2.183288
      5          6           0        4.720789   -0.565084    0.016724
      6          6           0        5.359303   -1.960053   -0.044147
      7          6           0        3.178230   -0.648427   -0.185633
      8          6           0        2.707288   -1.315441   -1.487197
      9          6           0        1.186886   -1.243801   -1.672370
     10          6           0        0.433388   -2.056172   -0.655604
     11          6           0       -0.401280   -1.600388    0.291734
     12          6           0       -0.734886   -0.165368    0.588750
     13          6           0       -2.034556    0.305418   -0.072316
     14          6           0       -3.275951   -0.447436    0.432487
     15          6           0       -4.623457    0.098566   -0.117613
     16          6           0       -4.641062    0.016096   -1.653301
     17          7           0       -4.815819    1.476171    0.388188
     18          6           0       -5.787579    2.326149   -0.099862
     19          6           0       -5.978711    3.562622    0.738095
     20          8           0       -6.452226    2.123196   -1.109160
     21          6           0       -5.749764   -0.760832    0.545030
     22          8           0       -6.322105   -0.392676    1.574390
     23          7           0       -5.965708   -2.011856   -0.001380
     24          6           0       -7.020327   -2.854674    0.506119
     25          7           0        4.930287    0.045675    1.361967
     26          6           0        6.186678    0.295848    1.872507
     27          6           0        6.196941    0.635060    3.339823
     28          8           0        7.213173    0.270886    1.206912
     29          1           0        5.314714    3.662470   -1.512949
     30          1           0        6.782331    2.650770   -1.671174
     31          1           0        5.423773    2.430473   -2.807098
     32          1           0        5.059847    1.955178    0.104269
     33          1           0        6.440365   -1.918208    0.123813
     34          1           0        4.934383   -2.619907    0.720119
     35          1           0        5.220701   -2.435173   -1.020771
     36          1           0        2.744921   -1.192511    0.663922
     37          1           0        2.753790    0.365236   -0.139376
     38          1           0        3.021351   -2.365401   -1.509932
     39          1           0        3.170610   -0.822854   -2.348845
     40          1           0        0.936984   -1.641204   -2.664517
     41          1           0        0.864747   -0.197887   -1.679491
     42          1           0        0.574153   -3.134672   -0.730889
     43          1           0       -0.884242   -2.335302    0.935136
     44          1           0        0.082621    0.493535    0.276453
     45          1           0       -0.807438   -0.045046    1.677231
     46          1           0       -2.146605    1.376087    0.130906
     47          1           0       -1.944166    0.195905   -1.159082
     48          1           0       -3.290207   -0.406684    1.530417
     49          1           0       -3.185913   -1.510164    0.170840
     50          1           0       -4.084842    0.843874   -2.106973
     51          1           0       -4.190385   -0.918128   -2.008445
     52          1           0       -5.659943    0.037202   -2.052598
     53          1           0       -4.699507    1.549314    1.392652
     54          1           0       -6.118211    4.425245    0.079170
     55          1           0       -6.861860    3.434412    1.369057
     56          1           0       -5.107648    3.755773    1.371145
     57          1           0       -5.659434   -2.181716   -0.949798
     58          1           0       -6.987453   -2.883271    1.599323
     59          1           0       -6.884628   -3.860787    0.103068
     60          1           0       -7.981894   -2.449371    0.180099
     61          1           0        4.221467   -0.175156    2.049726
     62          1           0        6.585214   -0.217860    3.901568
     63          1           0        6.836890    1.506600    3.500984
     64          1           0        5.195007    0.877506    3.705107
 ---------------------------------------------------------------------
 Rotational constants (GHZ):      0.3123351      0.0473544      0.0460198
 Standard basis: 6-31G(d) (6D, 7F)
 There are   492 symmetry adapted basis functions of A   symmetry.
 Integral buffers will be    131072 words long.
 Raffenetti 1 integral format.
 Two-electron integral symmetry is turned on.
   492 basis functions,   928 primitive gaussians,   492 cartesian basis functions
   108 alpha electrons      108 beta electrons
       nuclear repulsion energy      2625.5179364510 Hartrees.
 NAtoms=   64 NActive=   64 NUniq=   64 SFac= 7.50D-01 NAtFMM=   80 NAOKFM=F Big=T
 One-electron integrals computed using PRISM.
 NBasis=   492 RedAO= T  NBF=   492
 NBsUse=   492 1.00D-06 NBFU=   492
 Harris functional with IExCor=  205 diagonalized for initial guess.
 ExpMin= 1.61D-01 ExpMax= 5.48D+03 ExpMxC= 8.25D+02 IAcc=1 IRadAn=         1 AccDes= 0.00D+00
 HarFok:  IExCor=  205 AccDes= 0.00D+00 IRadAn=         1 IDoV= 1
 ScaDFX=  1.000000  1.000000  1.000000  1.000000
 FoFCou: FMM=F IPFlag=           0 FMFlag=      100000 FMFlg1=           1
         NFxFlg=           0 DoJE=T BraDBF=F KetDBF=T FulRan=T
         Omega=  0.000000  0.000000  1.000000  0.000000  0.000000 ICntrl=     500 IOpCl=  0
         NMat0=    1 NMatS0=    1 NMatT0=    0 NMatD0=    1 NMtDS0=    0 NMtDT0=    0
         I1Cent=           4 NGrid=           0.
 Petite list used in FoFCou.
 Initial guess orbital symmetries:
       Occupied  (A) (A) (A) (A) (A) (A) (A) (A) (A) (A) (A) (A)
                 (A) (A) (A) (A) (A) (A) (A) (A) (A) (A) (A) (A)
                 (A) (A) (A) (A) (A) (A) (A) (A) (A) (A) (A) (A)
                 (A) (A) (A) (A) (A) (A) (A) (A) (A) (A) (A) (A)
                 (A) (A) (A) (A) (A) (A) (A) (A) (A) (A) (A) (A)
                 (A) (A) (A) (A) (A) (A) (A) (A) (A) (A) (A) (A)
                 (A) (A) (A) (A) (A) (A) (A) (A) (A) (A) (A) (A)
                 (A) (A) (A) (A) (A) (A) (A) (A) (A) (A) (A) (A)
                 (A) (A) (A) (A) (A) (A) (A) (A) (A) (A) (A) (A)
       Virtual   (A) (A) (A) (A) (A) (A) (A) (A) (A) (A) (A) (A)
                 (A) (A) (A) (A) (A) (A) (A) (A) (A) (A) (A) (A)
                 (A) (A) (A) (A) (A) (A) (A) (A) (A) (A) (A) (A)
                 (A) (A) (A) (A) (A) (A) (A) (A) (A) (A) (A) (A)
                 (A) (A) (A) (A) (A) (A) (A) (A) (A) (A) (A) (A)
                 (A) (A) (A) (A) (A) (A) (A) (A) (A) (A) (A) (A)
                 (A) (A) (A) (A) (A) (A) (A) (A) (A) (A) (A) (A)
                 (A) (A) (A) (A) (A) (A) (A) (A) (A) (A) (A) (A)
                 (A) (A) (A) (A) (A) (A) (A) (A) (A) (A) (A) (A)
                 (A) (A) (A) (A) (A) (A) (A) (A) (A) (A) (A) (A)
                 (A) (A) (A) (A) (A) (A) (A) (A) (A) (A) (A) (A)
                 (A) (A) (A) (A) (A) (A) (A) (A) (A) (A) (A) (A)
                 (A) (A) (A) (A) (A) (A) (A) (A) (A) (A) (A) (A)
                 (A) (A) (A) (A) (A) (A) (A) (A) (A) (A) (A) (A)
                 (A) (A) (A) (A) (A) (A) (A) (A) (A) (A) (A) (A)
                 (A) (A) (A) (A) (A) (A) (A) (A) (A) (A) (A) (A)
                 (A) (A) (A) (A) (A) (A) (A) (A) (A) (A) (A) (A)
                 (A) (A) (A) (A) (A) (A) (A) (A) (A) (A) (A) (A)
                 (A) (A) (A) (A) (A) (A) (A) (A) (A) (A) (A) (A)
                 (A) (A) (A) (A) (A) (A) (A) (A) (A) (A) (A) (A)
                 (A) (A) (A) (A) (A) (A) (A) (A) (A) (A) (A) (A)
                 (A) (A) (A) (A) (A) (A) (A) (A) (A) (A) (A) (A)
                 (A) (A) (A) (A) (A) (A) (A) (A) (A) (A) (A) (A)
                 (A) (A) (A) (A) (A) (A) (A) (A) (A) (A) (A) (A)
                 (A) (A) (A) (A) (A) (A) (A) (A) (A) (A) (A) (A)
                 (A) (A) (A) (A) (A) (A) (A) (A) (A) (A) (A) (A)
                 (A) (A) (A) (A) (A) (A) (A) (A) (A) (A) (A) (A)
                 (A) (A) (A) (A) (A) (A) (A) (A) (A) (A) (A) (A)
                 (A) (A) (A) (A) (A) (A) (A) (A) (A) (A) (A) (A)
                 (A) (A) (A) (A) (A) (A) (A) (A) (A) (A) (A) (A)
                 (A) (A) (A) (A) (A) (A) (A) (A) (A) (A) (A) (A)
                 (A) (A) (A) (A) (A) (A) (A) (A) (A) (A) (A) (A)
 The electronic state of the initial guess is 1-A.
 Requested convergence on RMS density matrix=1.00D-08 within 128 cycles.
 Requested convergence on MAX density matrix=1.00D-06.
 Requested convergence on             energy=1.00D-06.
 No special actions if energy rises.
 Integral accuracy reduced to 1.0D-05 until final iterations.
 Initial convergence to 1.0D-05 achieved.  Increase integral accuracy.
 SCF Done:  E(RHF) =  -1295.60597427     A.U. after   14 cycles
             Convg  =    0.9442D-08             -V/T =  2.0024

 **********************************************************************

            Population analysis using the SCF density.

 **********************************************************************

 Orbital symmetries:
 BldTbl:  Degeneracy threshold= 1.00D-02
       Occupied  (A) (A) (A) (A) (A) (A) (A) (A) (A) (A) (A) (A)
                 (A) (A) (A) (A) (A) (A) (A) (A) (A) (A) (A) (A)
                 (A) (A) (A) (A) (A) (A) (A) (A) (A) (A) (A) (A)
                 (A) (A) (A) (A) (A) (A) (A) (A) (A) (A) (A) (A)
                 (A) (A) (A) (A) (A) (A) (A) (A) (A) (A) (A) (A)
                 (A) (A) (A) (A) (A) (A) (A) (A) (A) (A) (A) (A)
                 (A) (A) (A) (A) (A) (A) (A) (A) (A) (A) (A) (A)
                 (A) (A) (A) (A) (A) (A) (A) (A) (A) (A) (A) (A)
                 (A) (A) (A) (A) (A) (A) (A) (A) (A) (A) (A) (A)
       Virtual   (A) (A) (A) (A) (A) (A) (A) (A) (A) (A) (A) (A)
                 (A) (A) (A) (A) (A) (A) (A) (A) (A) (A) (A) (A)
                 (A) (A) (A) (A) (A) (A) (A) (A) (A) (A) (A) (A)
                 (A) (A) (A) (A) (A) (A) (A) (A) (A) (A) (A) (A)
                 (A) (A) (A) (A) (A) (A) (A) (A) (A) (A) (A) (A)
                 (A) (A) (A) (A) (A) (A) (A) (A) (A) (A) (A) (A)
                 (A) (A) (A) (A) (A) (A) (A) (A) (A) (A) (A) (A)
                 (A) (A) (A) (A) (A) (A) (A) (A) (A) (A) (A) (A)
                 (A) (A) (A) (A) (A) (A) (A) (A) (A) (A) (A) (A)
                 (A) (A) (A) (A) (A) (A) (A) (A) (A) (A) (A) (A)
                 (A) (A) (A) (A) (A) (A) (A) (A) (A) (A) (A) (A)
                 (A) (A) (A) (A) (A) (A) (A) (A) (A) (A) (A) (A)
                 (A) (A) (A) (A) (A) (A) (A) (A) (A) (A) (A) (A)
                 (A) (A) (A) (A) (A) (A) (A) (A) (A) (A) (A) (A)
                 (A) (A) (A) (A) (A) (A) (A) (A) (A) (A) (A) (A)
                 (A) (A) (A) (A) (A) (A) (A) (A) (A) (A) (A) (A)
                 (A) (A) (A) (A) (A) (A) (A) (A) (A) (A) (A) (A)
                 (A) (A) (A) (A) (A) (A) (A) (A) (A) (A) (A) (A)
                 (A) (A) (A) (A) (A) (A) (A) (A) (A) (A) (A) (A)
                 (A) (A) (A) (A) (A) (A) (A) (A) (A) (A) (A) (A)
                 (A) (A) (A) (A) (A) (A) (A) (A) (A) (A) (A) (A)
                 (A) (A) (A) (A) (A) (A) (A) (A) (A) (A) (A) (A)
                 (A) (A) (A) (A) (A) (A) (A) (A) (A) (A) (A) (A)
                 (A) (A) (A) (A) (A) (A) (A) (A) (A) (A) (A) (A)
                 (A) (A) (A) (A) (A) (A) (A) (A) (A) (A) (A) (A)
                 (A) (A) (A) (A) (A) (A) (A) (A) (A) (A) (A) (A)
                 (A) (A) (A) (A) (A) (A) (A) (A) (A) (A) (A) (A)
                 (A) (A) (A) (A) (A) (A) (A) (A) (A) (A) (A) (A)
                 (A) (A) (A) (A) (A) (A) (A) (A) (A) (A) (A) (A)
                 (A) (A) (A) (A) (A) (A) (A) (A) (A) (A) (A) (A)
                 (A) (A) (A) (A) (A) (A) (A) (A) (A) (A) (A) (A)
                 (A) (A) (A) (A) (A) (A) (A) (A) (A) (A) (A) (A)
 The electronic state is 1-A.
 Alpha  occ. eigenvalues --  -20.54010 -20.53211 -20.52512 -20.52431 -15.60520
 Alpha  occ. eigenvalues --  -15.59146 -15.58516 -15.57639 -11.36713 -11.35547
 Alpha  occ. eigenvalues --  -11.35210 -11.35028 -11.30012 -11.29990 -11.26081
 Alpha  occ. eigenvalues --  -11.25029 -11.24968 -11.24291 -11.24248 -11.23576
 Alpha  occ. eigenvalues --  -11.23535 -11.23353 -11.23255 -11.23254 -11.23205
 Alpha  occ. eigenvalues --  -11.22949 -11.22833 -11.21601  -1.39048  -1.37995
 Alpha  occ. eigenvalues --   -1.36914  -1.36789  -1.24818  -1.23084  -1.22714
 Alpha  occ. eigenvalues --   -1.21262  -1.11498  -1.09677  -1.07497  -1.04657
 Alpha  occ. eigenvalues --   -1.01295  -0.99437  -0.98738  -0.95179  -0.94882
 Alpha  occ. eigenvalues --   -0.94747  -0.92339  -0.87590  -0.85639  -0.82267
 Alpha  occ. eigenvalues --   -0.80917  -0.79259  -0.78854  -0.76066  -0.75672
 Alpha  occ. eigenvalues --   -0.72785  -0.71580  -0.70312  -0.69071  -0.67964
 Alpha  occ. eigenvalues --   -0.66375  -0.65367  -0.65103  -0.64054  -0.63597
 Alpha  occ. eigenvalues --   -0.63080  -0.62592  -0.62051  -0.62022  -0.61355
 Alpha  occ. eigenvalues --   -0.60516  -0.60075  -0.59652  -0.59025  -0.58480
 Alpha  occ. eigenvalues --   -0.58059  -0.57501  -0.57045  -0.56420  -0.55774
 Alpha  occ. eigenvalues --   -0.55530  -0.54988  -0.54302  -0.54097  -0.53903
 Alpha  occ. eigenvalues --   -0.52877  -0.52504  -0.52243  -0.51851  -0.51465
 Alpha  occ. eigenvalues --   -0.51073  -0.50482  -0.50192  -0.49085  -0.48458
 Alpha  occ. eigenvalues --   -0.48087  -0.47902  -0.47593  -0.45723  -0.43041
 Alpha  occ. eigenvalues --   -0.42280  -0.42033  -0.41356  -0.39737  -0.39270
 Alpha  occ. eigenvalues --   -0.38701  -0.37885  -0.34939
 Alpha virt. eigenvalues --    0.16461   0.17568   0.18498   0.19157   0.19377
 Alpha virt. eigenvalues --    0.19937   0.20754   0.22693   0.22895   0.23653
 Alpha virt. eigenvalues --    0.24326   0.24798   0.25543   0.25753   0.27080
 Alpha virt. eigenvalues --    0.27415   0.27881   0.28243   0.28665   0.29026
 Alpha virt. eigenvalues --    0.29524   0.29698   0.30232   0.30608   0.30741
 Alpha virt. eigenvalues --    0.31284   0.31547   0.31747   0.32075   0.32343
 Alpha virt. eigenvalues --    0.32903   0.33063   0.33374   0.33682   0.34407
 Alpha virt. eigenvalues --    0.34453   0.35142   0.35489   0.36231   0.36641
 Alpha virt. eigenvalues --    0.37224   0.37616   0.38259   0.38312   0.39095
 Alpha virt. eigenvalues --    0.39451   0.40108   0.41052   0.41541   0.42087
 Alpha virt. eigenvalues --    0.42654   0.43271   0.44931   0.45298   0.45955
 Alpha virt. eigenvalues --    0.46738   0.47691   0.47993   0.50984   0.52020
 Alpha virt. eigenvalues --    0.52817   0.54985   0.55703   0.58115   0.59850
 Alpha virt. eigenvalues --    0.60205   0.61379   0.61918   0.69057   0.69605
 Alpha virt. eigenvalues --    0.70077   0.70877   0.71564   0.71836   0.73347
 Alpha virt. eigenvalues --    0.73396   0.74386   0.74603   0.75232   0.75851
 Alpha virt. eigenvalues --    0.76075   0.76213   0.76516   0.76823   0.78011
 Alpha virt. eigenvalues --    0.78905   0.80294   0.80529   0.80956   0.81897
 Alpha virt. eigenvalues --    0.83056   0.83287   0.84152   0.84694   0.86086
 Alpha virt. eigenvalues --    0.87140   0.87608   0.88195   0.88748   0.89200
 Alpha virt. eigenvalues --    0.90367   0.90889   0.92188   0.92427   0.92781
 Alpha virt. eigenvalues --    0.93392   0.94063   0.95867   0.96363   0.97391
 Alpha virt. eigenvalues --    0.97652   0.97901   0.98309   0.99348   0.99527
 Alpha virt. eigenvalues --    0.99947   1.00971   1.01171   1.02591   1.03255
 Alpha virt. eigenvalues --    1.03537   1.04647   1.04908   1.06621   1.07057
 Alpha virt. eigenvalues --    1.07266   1.08181   1.09182   1.10115   1.10735
 Alpha virt. eigenvalues --    1.11681   1.12013   1.12263   1.12457   1.12711
 Alpha virt. eigenvalues --    1.13272   1.13479   1.13916   1.14123   1.14415
 Alpha virt. eigenvalues --    1.14760   1.15157   1.15691   1.15829   1.16358
 Alpha virt. eigenvalues --    1.17008   1.17060   1.17886   1.17976   1.18290
 Alpha virt. eigenvalues --    1.18598   1.19113   1.19215   1.19568   1.20183
 Alpha virt. eigenvalues --    1.20567   1.20600   1.21289   1.21668   1.21990
 Alpha virt. eigenvalues --    1.22371   1.22770   1.23034   1.23357   1.24369
 Alpha virt. eigenvalues --    1.25039   1.25593   1.26374   1.26719   1.27276
 Alpha virt. eigenvalues --    1.28004   1.28992   1.29369   1.30577   1.32001
 Alpha virt. eigenvalues --    1.32739   1.33723   1.34149   1.34406   1.36031
 Alpha virt. eigenvalues --    1.36950   1.37895   1.38844   1.39919   1.41294
 Alpha virt. eigenvalues --    1.42088   1.42544   1.42747   1.44290   1.45694
 Alpha virt. eigenvalues --    1.46312   1.50289   1.50849   1.51166   1.53412
 Alpha virt. eigenvalues --    1.53952   1.56806   1.58104   1.58219   1.59800
 Alpha virt. eigenvalues --    1.60493   1.61191   1.64073   1.65819   1.67248
 Alpha virt. eigenvalues --    1.68592   1.70964   1.71663   1.72403   1.72710
 Alpha virt. eigenvalues --    1.73273   1.73389   1.75204   1.76869   1.78410
 Alpha virt. eigenvalues --    1.79423   1.82987   1.84380   1.84654   1.86968
 Alpha virt. eigenvalues --    1.87513   1.88548   1.90404   1.92572   1.93518
 Alpha virt. eigenvalues --    1.94832   1.96354   1.98387   1.99604   2.00690
 Alpha virt. eigenvalues --    2.02583   2.03405   2.04671   2.05670   2.05817
 Alpha virt. eigenvalues --    2.06520   2.08510   2.09568   2.09741   2.10354
 Alpha virt. eigenvalues --    2.11264   2.11364   2.13268   2.13918   2.15118
 Alpha virt. eigenvalues --    2.15267   2.15735   2.15817   2.16912   2.17641
 Alpha virt. eigenvalues --    2.18810   2.19204   2.19606   2.20299   2.21135
 Alpha virt. eigenvalues --    2.21970   2.23371   2.24844   2.25099   2.25928
 Alpha virt. eigenvalues --    2.26182   2.26696   2.27353   2.27980   2.28451
 Alpha virt. eigenvalues --    2.29763   2.31093   2.31745   2.32811   2.33146
 Alpha virt. eigenvalues --    2.33734   2.34286   2.35675   2.36639   2.37078
 Alpha virt. eigenvalues --    2.37760   2.38456   2.39740   2.40444   2.41825
 Alpha virt. eigenvalues --    2.43114   2.45418   2.46158   2.47771   2.48085
 Alpha virt. eigenvalues --    2.50650   2.51027   2.51875   2.52710   2.53719
 Alpha virt. eigenvalues --    2.54104   2.56010   2.56739   2.57443   2.58156
 Alpha virt. eigenvalues --    2.60445   2.61420   2.62077   2.62305   2.63008
 Alpha virt. eigenvalues --    2.63531   2.65936   2.66575   2.67714   2.68477
 Alpha virt. eigenvalues --    2.69609   2.69968   2.71334   2.72222   2.72654
 Alpha virt. eigenvalues --    2.74505   2.74927   2.75655   2.76778   2.77417
 Alpha virt. eigenvalues --    2.79481   2.80035   2.81205   2.82661   2.84616
 Alpha virt. eigenvalues --    2.84829   2.86473   2.88685   2.92290   2.93347
 Alpha virt. eigenvalues --    2.93802   2.94472   2.96064   2.97248   2.97752
 Alpha virt. eigenvalues --    3.00164   3.01569   3.02604   3.04125   3.05716
 Alpha virt. eigenvalues --    3.06069   3.08446   3.11254   3.13236   3.14400
 Alpha virt. eigenvalues --    3.17214   3.19346   3.21185   3.24471   3.25721
 Alpha virt. eigenvalues --    3.29273   3.30746   3.36969   3.37859   3.38195
 Alpha virt. eigenvalues --    3.39092   3.39353   3.47342   3.47464   3.53434
 Alpha virt. eigenvalues --    3.53671   4.33961   4.37085   4.41873   4.46463
 Alpha virt. eigenvalues --    4.46647   4.49691   4.54015   4.55969   4.58973
 Alpha virt. eigenvalues --    4.61740   4.62572   4.63914   4.66041   4.69454
 Alpha virt. eigenvalues --    4.71629   4.72756   4.73597   4.81779   4.83078
 Alpha virt. eigenvalues --    4.85356   4.87029   4.90939   4.92907   4.95159
 Alpha virt. eigenvalues --    4.96885   5.03795   5.17700   5.18601
          Condensed to atoms (all electrons):
 Mulliken atomic charges:
              1
     1  C   -0.280653
     2  N   -0.777031
     3  C    0.801230
     4  O   -0.633810
     5  C    0.122699
     6  C   -0.487593
     7  C   -0.328306
     8  C   -0.325367
     9  C   -0.356494
    10  C   -0.167723
    11  C   -0.186383
    12  C   -0.353164
    13  C   -0.302503
    14  C   -0.324002
    15  C    0.102057
    16  C   -0.515337
    17  N   -0.788527
    18  C    0.772000
    19  C   -0.586893
    20  O   -0.621772
    21  C    0.794656
    22  O   -0.646521
    23  N   -0.795680
    24  C   -0.277146
    25  N   -0.850909
    26  C    0.753404
    27  C   -0.583052
    28  O   -0.605025
    29  H    0.163176
    30  H    0.180737
    31  H    0.201182
    32  H    0.394903
    33  H    0.215465
    34  H    0.146547
    35  H    0.199208
    36  H    0.168359
    37  H    0.179859
    38  H    0.166445
    39  H    0.204098
    40  H    0.178463
    41  H    0.171829
    42  H    0.178317
    43  H    0.176868
    44  H    0.173685
    45  H    0.161863
    46  H    0.177186
    47  H    0.171545
    48  H    0.170274
    49  H    0.185492
    50  H    0.199839
    51  H    0.148889
    52  H    0.221452
    53  H    0.391075
    54  H    0.208191
    55  H    0.213502
    56  H    0.171835
    57  H    0.392752
    58  H    0.206429
    59  H    0.167351
    60  H    0.177955
    61  H    0.386504
    62  H    0.210860
    63  H    0.215283
    64  H    0.170424
 Sum of Mulliken atomic charges =   0.00000
 Mulliken charges with hydrogens summed into heavy atoms:
              1
     1  C    0.264442
     2  N   -0.382128
     3  C    0.801230
     4  O   -0.633810
     5  C    0.122699
     6  C    0.073627
     7  C    0.019912
     8  C    0.045177
     9  C   -0.006202
    10  C    0.010594
    11  C   -0.009515
    12  C   -0.017616
    13  C    0.046229
    14  C    0.031764
    15  C    0.102057
    16  C    0.054842
    17  N   -0.397452
    18  C    0.772000
    19  C    0.006636
    20  O   -0.621772
    21  C    0.794656
    22  O   -0.646521
    23  N   -0.402928
    24  C    0.274589
    25  N   -0.464405
    26  C    0.753404
    27  C    0.013515
    28  O   -0.605025
 Sum of Mulliken charges with hydrogens summed into heavy atoms =   0.00000
 DipInt: DoE/N= T F RetVal/Mat= T F Init=T NMatP=  1 IDeriv=0 Min/MaxMlt=  0  4
 Entering OneElI...
 OneElI was handed    32936476 working-precision words.
 Multipole integrals L=0 to 4 MinM= 0 MaxM= 0.
 Requested accuracy = 0.1000D-12
 PrsmSu:  NPrtUS=   1 ThrOK=F IAlg=1
 PRISM was handed    32092463 working-precision words and  9909 shell-pairs
 IPart=  0 NShTot=        9909 NBatch=          72 AvBLen=       137.6
 Electronic moments (au):
       -216.00000000         -0.41077531         -0.29643372          1.75200797
     -19517.50008206      -2126.07278210      -1487.93986030         15.88000397
         18.37574031          5.93769046       5947.76951412      -2092.24018378
      -1276.00328285       7854.51485000      -8894.85984638      -8406.75920815
      -7288.70668545       -832.57575991        609.65419632       -213.74062505
   -2467555.24720046     -59624.04462276     -32450.45923623     -54382.24368560
     -39076.55252407      11478.02313416       1343.04874076     -21476.67497790
      -2245.98963384    -231166.87180880    -157395.33888546     -10038.69861941
      16409.88382439      17454.01592682      -9088.62926824
 Electronic spatial extent (au):  <R**2>=          23131.5127
 DipInt: DoE/N= F T RetVal/Mat= T F Init=T NMatP=  1 IDeriv=0 Min/MaxMlt=  0  4
 Nuclear    moments (au):
        216.00000000          0.00000000          0.00000000          0.00000000
      19332.43843299       2010.53770211       1360.24115924          0.00000000
          0.00000000          0.00000000      -6181.01865459       2122.86038370
       1337.85932017      -7877.97793598       8806.65904424       8589.13876124
       7346.14999035        841.79085985       -596.97293264        122.30144138
    2385229.31738319      52601.55619722      27420.64683759      57239.55016775
      40687.53004599     -11231.23706947      -1277.87279208      22241.56602371
       2243.11195002     220147.47138130     144825.60284505       7997.26046425
     -15671.44140147     -17773.02948393       9312.10288469
 Total      moments (au):
          0.00000000         -0.41077531         -0.29643372          1.75200797
       -185.06164907       -115.53508000       -127.69870107         15.88000397
         18.37574031          5.93769046       -233.24914047         30.62019992
         61.85603732        -23.46308597        -88.20080214        182.37955310
         57.44330491          9.21509995         12.68126368        -91.43918366
     -82325.92981727      -7022.48842554      -5029.81239863       2857.30648215
       1610.97752192        246.78606469         65.17594867        764.89104581
         -2.87768382     -11019.40042750     -12569.73604041      -2041.43815516
        738.44242292       -319.01355711        223.47361646
 Traceless Quadrup. (au):
        -42.29650569         27.23006338         15.06644231         15.88000397
         18.37574031          5.93769046
 Charge=              0.0000 electrons
 Dipole moment (field-independent basis, Debye):
    X=             -1.0441    Y=             -0.7535    Z=              4.4532  Tot=              4.6356
 Quadrupole moment (field-independent basis, Debye-Ang):
   XX=           -248.9142   YY=           -155.3986   ZZ=           -171.7591
   XY=             21.3591   XZ=             24.7160   YZ=              7.9864
 Traceless Quadrupole moment (field-independent basis, Debye-Ang):
   XX=            -56.8902   YY=             36.6254   ZZ=             20.2649
   XY=             21.3591   XZ=             24.7160   YZ=              7.9864
 Octapole moment (field-independent basis, Debye-Ang**2):
  XXX=           -166.0177  YYY=             21.7943  ZZZ=             44.0267  XYY=            -16.7001
  XXY=            -62.7779  XXZ=            129.8107  XZZ=             40.8859  YZZ=              6.5590
  YYZ=              9.0260  XYZ=            -65.0829
 Hexadecapole moment (field-independent basis, Debye-Ang**3):
 XXXX=         -31007.8908 YYYY=          -2645.0057 ZZZZ=          -1894.4684 XXXY=           1076.1986
 XXXZ=            606.7713 YYYX=             92.9515 YYYZ=             24.5484 ZZZX=            288.0946
 ZZZY=             -1.0839 XXYY=          -4150.4343 XXZZ=          -4734.3650 YYZZ=           -768.9034
 XXYZ=            278.1328 YYXZ=           -120.1558 ZZXY=             84.1709
 N-N= 2.625517936451D+03 E-N=-8.281091514688D+03  KE= 1.292502603137D+03
 Entering OneElI...
 OneElI was handed    32450256 working-precision words.
 Calculate electrostatic properties
    NBasis =   492  MinDer = 0  MaxDer = 0
    NGrid  =    64  NMatD  =   1
 Requested accuracy = 0.1000D-12
 PrsmSu:  NPrtUS=   1 ThrOK=F IAlg=1
 PRISM was handed    31704341 working-precision words and  8344 shell-pairs
 IPart=  0 NShTot=      534016 NBatch=        8344 AvBLen=        64.0
 --------------------------------------------------------
       Center         ----      EFG at Nuclei      ----
                      3XX-RR        3YY-RR        3ZZ-RR
 --------------------------------------------------------
     1   Atom        0.073595     -0.077741      0.004146
     2   Atom        0.886300     -0.527423     -0.358877
     3   Atom       -0.435520      0.190742      0.244777
     4   Atom       -0.729561      1.369967     -0.640406
     5   Atom        0.152562      0.085049     -0.237612
     6   Atom        0.048338     -0.083370      0.035032
     7   Atom       -0.088841      0.049223      0.039618
     8   Atom       -0.017826      0.023314     -0.005489
     9   Atom       -0.006674      0.009558     -0.002884
    10   Atom       -0.095119      0.102241     -0.007122
    11   Atom       -0.089229      0.099307     -0.010078
    12   Atom        0.010786     -0.014011      0.003225
    13   Atom       -0.039948      0.025561      0.014387
    14   Atom       -0.045694      0.033226      0.012469
    15   Atom        0.095676     -0.218238      0.122562
    16   Atom        0.081590      0.012167     -0.093757
    17   Atom        0.564535     -0.256757     -0.307778
    18   Atom       -0.216689      0.114259      0.102430
    19   Atom        0.020922     -0.028824      0.007902
    20   Atom       -0.416848      1.195682     -0.778833
    21   Atom       -0.108816      0.045725      0.063091
    22   Atom       -0.114981      0.996968     -0.881987
    23   Atom        0.387617     -0.207100     -0.180517
    24   Atom       -0.083200     -0.034461      0.117662
    25   Atom       -0.345371      0.792196     -0.446825
    26   Atom        0.198666     -0.503392      0.304727
    27   Atom        0.024612      0.022671     -0.047284
    28   Atom       -0.240201     -0.589827      0.830028
    29   Atom        0.101371     -0.221462      0.120091
    30   Atom       -0.289810      0.146048      0.143762
    31   Atom        0.122120      0.125378     -0.247499
    32   Atom        0.229914      0.118819     -0.348734
    33   Atom       -0.277643      0.139438      0.138205
    34   Atom        0.080882     -0.013133     -0.067749
    35   Atom        0.138913      0.059404     -0.198317
    36   Atom        0.078838      0.043178     -0.122016
    37   Atom        0.074681     -0.218022      0.143341
    38   Atom        0.106820     -0.254697      0.147877
    39   Atom        0.068372      0.057667     -0.126040
    40   Atom        0.122388      0.088983     -0.211371
    41   Atom        0.107097     -0.256326      0.149229
    42   Atom        0.145761     -0.293054      0.147293
    43   Atom        0.066178     -0.062192     -0.003986
    44   Atom       -0.098899     -0.013798      0.112697
    45   Atom        0.144654      0.138009     -0.282663
    46   Atom        0.138566     -0.271018      0.132452
    47   Atom        0.136089      0.146923     -0.283012
    48   Atom        0.136258      0.147392     -0.283651
    49   Atom        0.133615     -0.255314      0.121699
    50   Atom        0.036345     -0.102264      0.065919
    51   Atom        0.077425     -0.176349      0.098924
    52   Atom       -0.230406      0.152503      0.077903
    53   Atom        0.205889      0.162917     -0.368807
    54   Atom        0.144825     -0.131560     -0.013266
    55   Atom       -0.140897      0.139664      0.001233
    56   Atom       -0.130486      0.128133      0.002353
    57   Atom        0.155647      0.159719     -0.315366
    58   Atom        0.139856      0.148173     -0.288029
    59   Atom        0.139565     -0.230623      0.091058
    60   Atom       -0.201415      0.088024      0.113391
    61   Atom       -0.104313      0.200344     -0.096031
    62   Atom        0.098810     -0.123967      0.025157
    63   Atom       -0.000637     -0.132358      0.132996
    64   Atom       -0.228136      0.134231      0.093905
 --------------------------------------------------------
                        XY            XZ            YZ
 --------------------------------------------------------
     1   Atom       -0.100584      0.102764      0.172645
     2   Atom       -0.108452      0.342861     -0.000277
     3   Atom        0.028727     -0.316725     -0.000615
     4   Atom        0.339749     -0.053299     -0.794881
     5   Atom       -0.063509     -0.057025     -0.129956
     6   Atom        0.039308      0.016310      0.030926
     7   Atom       -0.002935      0.013786     -0.001739
     8   Atom       -0.001633     -0.039696     -0.044814
     9   Atom       -0.010648      0.002004      0.022243
    10   Atom       -0.042931     -0.259492      0.015219
    11   Atom       -0.045642     -0.242055      0.012558
    12   Atom        0.005095     -0.016743     -0.010266
    13   Atom       -0.015971     -0.007006      0.027416
    14   Atom        0.036017     -0.029775      0.023934
    15   Atom       -0.004462      0.043074     -0.080671
    16   Atom        0.004716      0.022590     -0.028256
    17   Atom        0.576797     -0.379049     -0.233296
    18   Atom       -0.218834      0.327026      0.276703
    19   Atom       -0.005522     -0.002177     -0.042735
    20   Atom       -1.018275     -0.237292      0.271387
    21   Atom        0.268665     -0.403111      0.144984
    22   Atom        1.095230      0.062562     -0.117063
    23   Atom       -0.538125      0.513728     -0.308847
    24   Atom       -0.181521      0.101691      0.080663
    25   Atom       -0.392325      0.076950     -0.259947
    26   Atom        0.098348     -0.117698      0.199122
    27   Atom        0.014079      0.012896     -0.024307
    28   Atom        0.393219      1.090250      0.569810
    29   Atom        0.138188      0.045438     -0.091184
    30   Atom        0.000912     -0.037974      0.009735
    31   Atom       -0.031951     -0.100885     -0.081154
    32   Atom        0.000460      0.040221     -0.139397
    33   Atom       -0.012462     -0.067860     -0.002755
    34   Atom       -0.100395      0.127855      0.185830
    35   Atom       -0.020060     -0.057035     -0.171979
    36   Atom       -0.085085      0.122441      0.166066
    37   Atom        0.150056      0.002333     -0.019666
    38   Atom        0.118739     -0.003227     -0.010169
    39   Atom       -0.085024      0.136649      0.151155
    40   Atom       -0.038324     -0.086827     -0.142079
    41   Atom        0.123729      0.003193      0.000962
    42   Atom        0.057620      0.014890     -0.029011
    43   Atom       -0.131957      0.127527      0.177530
    44   Atom       -0.194987      0.096248      0.076214
    45   Atom        0.006251      0.030591     -0.047909
    46   Atom        0.040342      0.008061     -0.080413
    47   Atom        0.002122      0.035422     -0.043506
    48   Atom        0.002616      0.005145     -0.018981
    49   Atom        0.032924      0.003558     -0.101543
    50   Atom       -0.173109      0.093058      0.133948
    51   Atom        0.155692      0.058070     -0.115737
    52   Atom        0.000372     -0.145812      0.004300
    53   Atom        0.032112     -0.081257     -0.049137
    54   Atom        0.046592     -0.033229      0.207254
    55   Atom       -0.042530      0.211706      0.025427
    56   Atom       -0.056689     -0.208228     -0.048191
    57   Atom       -0.004204      0.182479     -0.101744
    58   Atom       -0.009693     -0.010136      0.019202
    59   Atom        0.043447      0.029866     -0.150070
    60   Atom        0.135392     -0.113116      0.054667
    61   Atom       -0.110629      0.263751      0.069994
    62   Atom        0.125913     -0.082659      0.177977
    63   Atom       -0.209722     -0.039090     -0.053932
    64   Atom        0.087023      0.131503     -0.037805
 --------------------------------------------------------


 ---------------------------------------------------------------------------------
              Nuclear Quadrupole in Principal Axis System
 ---------------------------------------------------------------------------------

       Atom             a.u.   MegaHertz   Gauss  10(-4) cm-1        Axes

              Baa    -0.2731   -36.642   -13.075   -12.222  0.3812  0.7147 -0.5864
     1 C(13)  Bbb     0.1191    15.989     5.705     5.333  0.7249 -0.6248 -0.2902
              Bcc     0.1539    20.653     7.370     6.889  0.5738  0.3145  0.7562
 
              Baa    -0.5422   -20.912    -7.462    -6.976  0.1317  0.9606 -0.2448
     2 N(14)  Bbb    -0.4396   -16.953    -6.049    -5.655 -0.2204  0.2691  0.9375
              Bcc     0.9818    37.865    13.511    12.631  0.9665 -0.0695  0.2472
 
              Baa    -0.5611   -75.292   -26.866   -25.115  0.9301 -0.0352  0.3655
     3 C(13)  Bbb     0.1910    25.629     9.145     8.549  0.0101  0.9975  0.0706
              Bcc     0.3701    49.663    17.721    16.566 -0.3671 -0.0620  0.9281
 
              Baa    -0.9394    67.971    24.254    22.673 -0.3465  0.3505  0.8701
     4 O(17)  Bbb    -0.7542    54.574    19.473    18.204  0.9278 -0.0088  0.3730
              Bcc     1.6936  -122.545   -43.727   -40.877  0.1384  0.9365 -0.3221
 
              Baa    -0.2961   -39.728   -14.176   -13.252  0.1661  0.3429  0.9246
     5 C(13)  Bbb     0.1042    13.985     4.990     4.665  0.5429  0.7509 -0.3760
              Bcc     0.1918    25.743     9.186     8.587  0.8232 -0.5644  0.0615
 
              Baa    -0.0992   -13.309    -4.749    -4.439 -0.2329  0.9535 -0.1914
     6 C(13)  Bbb     0.0241     3.240     1.156     1.081 -0.5821  0.0210  0.8128
              Bcc     0.0750    10.068     3.593     3.358  0.7790  0.3007  0.5502
 
              Baa    -0.0904   -12.125    -4.327    -4.044  0.9943  0.0196 -0.1052
     7 C(13)  Bbb     0.0406     5.448     1.944     1.817  0.0980  0.2287  0.9686
              Bcc     0.0498     6.677     2.382     2.227 -0.0430  0.9733 -0.2255
 
              Baa    -0.0640    -8.594    -3.067    -2.867  0.6128  0.3697  0.6984
     8 C(13)  Bbb     0.0011     0.148     0.053     0.049  0.7313 -0.6001 -0.3241
              Bcc     0.0629     8.446     3.014     2.817  0.2993  0.7093 -0.6382
 
              Baa    -0.0238    -3.191    -1.139    -1.064 -0.4466 -0.5909  0.6719
     9 C(13)  Bbb    -0.0042    -0.569    -0.203    -0.190  0.8690 -0.1077  0.4829
              Bcc     0.0280     3.760     1.342     1.254 -0.2129  0.7995  0.5616
 
              Baa    -0.3156   -42.349   -15.111   -14.126  0.7654  0.0553  0.6412
    10 C(13)  Bbb     0.0908    12.183     4.347     4.064  0.1576  0.9499 -0.2701
              Bcc     0.2248    30.166    10.764    10.062 -0.6239  0.3078  0.7183
 
              Baa    -0.2967   -39.818   -14.208   -13.282  0.7637  0.0677  0.6420
    11 C(13)  Bbb     0.0871    11.683     4.169     3.897  0.1692  0.9387 -0.3002
              Bcc     0.2097    28.135    10.039     9.385 -0.6229  0.3379  0.7055
 
              Baa    -0.0191    -2.565    -0.915    -0.856  0.1289  0.8609  0.4921
    12 C(13)  Bbb    -0.0077    -1.038    -0.370    -0.346  0.6652 -0.4431  0.6010
              Bcc     0.0269     3.603     1.286     1.202  0.7355  0.2499 -0.6298
 
              Baa    -0.0436    -5.857    -2.090    -1.954  0.9755  0.2196  0.0140
    13 C(13)  Bbb    -0.0074    -0.996    -0.355    -0.332  0.1233 -0.5983  0.7917
              Bcc     0.0511     6.853     2.445     2.286 -0.1822  0.7706  0.6107
 
              Baa    -0.0750   -10.065    -3.592    -3.357  0.8453 -0.3671  0.3882
    14 C(13)  Bbb     0.0230     3.086     1.101     1.029 -0.4892 -0.2397  0.8386
              Bcc     0.0520     6.980     2.490     2.328  0.2148  0.8988  0.3822
 
              Baa    -0.2364   -31.729   -11.322   -10.584 -0.0156  0.9752  0.2210
    15 C(13)  Bbb     0.0697     9.354     3.338     3.120  0.8552  0.1275 -0.5024
              Bcc     0.1667    22.375     7.984     7.463  0.5181 -0.1812  0.8359
 
              Baa    -0.1037   -13.915    -4.965    -4.641 -0.1235  0.2399  0.9629
    16 C(13)  Bbb     0.0192     2.579     0.920     0.860  0.0136  0.9707 -0.2401
              Bcc     0.0845    11.335     4.045     3.781  0.9923  0.0166  0.1231
 
              Baa    -0.5638   -21.743    -7.758    -7.253 -0.3634  0.8906  0.2736
    17 N(14)  Bbb    -0.4476   -17.262    -6.159    -5.758  0.4046 -0.1137  0.9074
              Bcc     1.0113    39.005    13.918    13.011  0.8392  0.4404 -0.3190
 
              Baa    -0.5830   -78.229   -27.914   -26.094  0.7301  0.4375 -0.5250
    18 C(13)  Bbb     0.1830    24.562     8.764     8.193 -0.6538  0.6706 -0.3504
              Bcc     0.3999    53.667    19.150    17.901  0.1988  0.5990  0.7757
 
              Baa    -0.0574    -7.703    -2.749    -2.570  0.0740  0.8333  0.5478
    19 C(13)  Bbb     0.0213     2.852     1.018     0.951  0.9939 -0.0166 -0.1090
              Bcc     0.0362     4.851     1.731     1.618  0.0817 -0.5525  0.8295
 
              Baa    -0.9713    70.286    25.080    23.445  0.7841  0.3005  0.5430
    20 O(17)  Bbb    -0.7650    55.356    19.752    18.465 -0.4418 -0.3441  0.8285
              Bcc     1.7364  -125.641   -44.832   -41.909 -0.4358  0.8895  0.1371
 
              Baa    -0.5797   -77.795   -27.759   -25.950  0.7158 -0.4342  0.5468
    21 C(13)  Bbb     0.1777    23.843     8.508     7.953  0.1863  0.8735  0.4498
              Bcc     0.4021    53.952    19.251    17.996 -0.6730 -0.2201  0.7062
 
              Baa    -0.9598    69.449    24.781    23.166 -0.4603  0.3074  0.8328
    22 O(17)  Bbb    -0.7112    51.465    18.364    17.167  0.7182 -0.4226  0.5529
              Bcc     1.6710  -120.914   -43.145   -40.333  0.5219  0.8526 -0.0263
 
              Baa    -0.5250   -20.249    -7.225    -6.754  0.4657  0.8799  0.0944
    23 N(14)  Bbb    -0.4825   -18.608    -6.640    -6.207 -0.4393  0.1372  0.8878
              Bcc     1.0075    38.857    13.865    12.961  0.7682 -0.4549  0.4505
 
              Baa    -0.2839   -38.090   -13.592   -12.706  0.7193  0.6230 -0.3073
    24 C(13)  Bbb     0.1234    16.553     5.906     5.521 -0.6089  0.7784  0.1527
              Bcc     0.1605    21.538     7.685     7.184  0.3344  0.0773  0.9393
 
              Baa    -0.4993   -19.256    -6.871    -6.423  0.0567  0.2135  0.9753
    25 N(14)  Bbb    -0.4671   -18.015    -6.428    -6.009  0.9549  0.2737 -0.1154
              Bcc     0.9664    37.271    13.299    12.432 -0.2915  0.9378 -0.1884
 
              Baa    -0.5696   -76.430   -27.272   -25.494 -0.1593  0.9577 -0.2396
    26 C(13)  Bbb     0.1719    23.069     8.232     7.695  0.8791  0.2481  0.4071
              Bcc     0.3977    53.361    19.040    17.799 -0.4493  0.1457  0.8814
 
              Baa    -0.0582    -7.814    -2.788    -2.607 -0.1978  0.3135  0.9288
    27 C(13)  Bbb     0.0196     2.637     0.941     0.879  0.7333 -0.5814  0.3524
              Bcc     0.0386     5.178     1.848     1.727  0.6505  0.7508 -0.1148
 
              Baa    -0.9270    67.078    23.935    22.375  0.8590 -0.2235 -0.4606
    28 O(17)  Bbb    -0.7898    57.147    20.391    19.062  0.0490  0.9314 -0.3606
              Bcc     1.7168  -124.225   -44.327   -41.437  0.5096  0.2872  0.8111
 
              Baa    -0.2971  -158.538   -56.570   -52.882 -0.3423  0.9095  0.2360
    29 H(1)   Bbb     0.1372    73.195    26.118    24.415 -0.4700 -0.3833  0.7951
              Bcc     0.1600    85.343    30.452    28.467  0.8136  0.1612  0.5586
 
              Baa    -0.2931  -156.394   -55.805   -52.167  0.9962 -0.0040  0.0867
    30 H(1)   Bbb     0.1369    73.057    26.069    24.369  0.0626  0.7254 -0.6855
              Bcc     0.1562    83.336    29.737    27.798 -0.0601  0.6884  0.7229
 
              Baa    -0.2912  -155.385   -55.445   -51.831  0.2470  0.2035  0.9474
    31 H(1)   Bbb     0.1347    71.875    25.647    23.975  0.5701  0.7601 -0.3119
              Bcc     0.1565    83.510    29.798    27.856  0.7836 -0.6172 -0.0717
 
              Baa    -0.3896  -207.863   -74.171   -69.336 -0.0627  0.2640  0.9625
    32 H(1)   Bbb     0.1559    83.160    29.673    27.739  0.1321  0.9581 -0.2542
              Bcc     0.2337   124.703    44.497    41.596  0.9893 -0.1112  0.0949
 
              Baa    -0.2888  -154.098   -54.986   -51.402  0.9871  0.0297  0.1571
    33 H(1)   Bbb     0.1398    74.566    26.607    24.873 -0.0422  0.9962  0.0765
              Bcc     0.1491    79.532    28.379    26.529 -0.1542 -0.0822  0.9846
 
              Baa    -0.2979  -158.947   -56.716   -53.019 -0.3941 -0.5957  0.6999
    34 H(1)   Bbb     0.1418    75.656    26.996    25.236 -0.5733  0.7546  0.3194
              Bcc     0.1561    83.291    29.720    27.783  0.7184  0.2754  0.6389
 
              Baa    -0.2927  -156.168   -55.725   -52.092  0.1377  0.4410  0.8869
    35 H(1)   Bbb     0.1388    74.050    26.423    24.701 -0.6570  0.7107 -0.2514
[...]
 **** Fit      -0.002469
 **** Fit      -0.004965
 **** Fit      -0.008925
 **** Fit      -0.014470
 **** Fit      -0.020004
 **** Fit      -0.014086
 **** Fit      -0.009334
 **** Fit      -0.005701
 **** Fit      -0.003014
 **** Fit      -0.001092
 **** Fit       0.000213
 **** Fit       0.001021
 **** Fit       0.001419
 **** Fit       0.001463
 **** Fit       0.001168
 **** Fit       0.000504
 **** Fit      -0.000620
 **** Fit      -0.002370
 **** Fit      -0.005015
 **** Fit      -0.008868
 **** Fit      -0.014877
 **** Fit       0.001896
 **** Fit       0.002374
 **** Fit       0.002563
 **** Fit       0.002506
 **** Fit       0.002221
 **** Fit       0.001692
 **** Fit       0.000867
 **** Fit      -0.000357
 **** Fit      -0.002161
 **** Fit      -0.004842
 **** Fit      -0.008415
 **** Fit       0.003498
 **** Fit       0.003507
 **** Fit       0.003346
 **** Fit       0.003033
 **** Fit       0.002563
 **** Fit       0.001909
 **** Fit       0.001013
 **** Fit      -0.000225
 **** Fit      -0.001977
 **** Fit      -0.004538
 **** Fit      -0.007514
 **** Fit       0.004258
 **** Fit       0.003908
 **** Fit       0.003450
 **** Fit       0.002877
 **** Fit       0.002161
 **** Fit       0.001249
 **** Fit       0.000053
 **** Fit      -0.001577
 **** Fit      -0.003920
 **** Fit      -0.006248
 **** Fit       0.003723
 **** Fit       0.003032
 **** Fit       0.002234
 **** Fit       0.001284
 **** Fit       0.000123
 **** Fit      -0.001348
 **** Fit      -0.003328
 **** Fit       0.001202
 **** Fit      -0.000018
 **** Fit      -0.001410
 **** Fit       0.006092
 **** Fit       0.005973
 **** Fit       0.006113
 **** Fit       0.006428
 **** Fit       0.006620
 **** Fit       0.006671
 **** Fit       0.006570
 **** Fit       0.006310
 **** Fit       0.005885
 **** Fit       0.006412
 **** Fit       0.006832
 **** Fit       0.007129
 **** Fit       0.007287
 **** Fit       0.007297
 **** Fit       0.007150
 **** Fit       0.006841
 **** Fit       0.006359
 **** Fit       0.005684
 **** Fit       0.006100
 **** Fit       0.006704
 **** Fit       0.007210
 **** Fit       0.007598
 **** Fit       0.007855
 **** Fit       0.007973
 **** Fit       0.007947
 **** Fit       0.007773
 **** Fit       0.007444
 **** Fit       0.006945
 **** Fit       0.006241
 **** Fit       0.006019
 **** Fit       0.006738
 **** Fit       0.007364
 **** Fit       0.007878
 **** Fit       0.008268
 **** Fit       0.008529
 **** Fit       0.008655
 **** Fit       0.008646
 **** Fit       0.008498
 **** Fit       0.008206
 **** Fit       0.007752
 **** Fit       0.007096
 **** Fit       0.006145
 **** Fit       0.006020
 **** Fit       0.006857
 **** Fit       0.007593
 **** Fit       0.008212
 **** Fit       0.008703
 **** Fit       0.009062
 **** Fit       0.009287
 **** Fit       0.009379
 **** Fit       0.009338
 **** Fit       0.009162
 **** Fit       0.008840
 **** Fit       0.008339
 **** Fit       0.007571
 **** Fit       0.005630
 **** Fit       0.006615
 **** Fit       0.007501
 **** Fit       0.008270
 **** Fit       0.008913
 **** Fit       0.009422
 **** Fit       0.009796
 **** Fit       0.010038
 **** Fit       0.010154
 **** Fit       0.010149
 **** Fit       0.010025
 **** Fit       0.009768
 **** Fit       0.009328
 **** Fit       0.008564
 **** Fit       0.006455
 **** Fit       0.007422
 **** Fit       0.008295
 **** Fit       0.009056
 **** Fit       0.009697
 **** Fit       0.010213
 **** Fit       0.010608
 **** Fit       0.010890
 **** Fit       0.011074
 **** Fit       0.011178
 **** Fit       0.011217
 **** Fit       0.011195
 **** Fit       0.011078
 **** Fit       0.007677
 **** Fit       0.008580
 **** Fit       0.009418
 **** Fit       0.010161
 **** Fit       0.010796
 **** Fit       0.011324
 **** Fit       0.011761
 **** Fit       0.012140
 **** Fit       0.012508
 **** Fit       0.012937
 **** Fit       0.013524
 **** Fit       0.009328
 **** Fit       0.010054
 **** Fit       0.010803
 **** Fit       0.011516
 **** Fit       0.012177
 **** Fit       0.012807
 **** Fit       0.013468
 **** Fit       0.014277
 **** Fit       0.015438
 **** Fit       0.011405
 **** Fit       0.011696
 **** Fit       0.012301
 **** Fit       0.013048
 **** Fit       0.013900
 **** Fit       0.014944
 **** Fit       0.016418
 **** Fit       0.014489
 **** Fit       0.014275
 **** Fit       0.014966
 **** Fit       0.016304
 **** Fit       0.018607
 **** Fit       0.017927
 **** Fit      -0.015175
 **** Fit      -0.010323
 **** Fit      -0.022545
 **** Fit      -0.016191
 **** Fit      -0.011440
 **** Fit      -0.007921
 **** Fit      -0.005294
 **** Fit      -0.003291
 **** Fit      -0.020703
 **** Fit      -0.014968
 **** Fit      -0.010739
 **** Fit      -0.007541
 **** Fit      -0.005073
 **** Fit      -0.003128
 **** Fit      -0.001538
 **** Fit      -0.023054
 **** Fit      -0.016868
 **** Fit      -0.012332
 **** Fit      -0.008865
 **** Fit      -0.006154
 **** Fit      -0.004000
 **** Fit      -0.002256
 **** Fit      -0.000790
 **** Fit       0.000515
 **** Fit      -0.024960
 **** Fit      -0.018710
 **** Fit      -0.014047
 **** Fit      -0.010402
 **** Fit      -0.007488
 **** Fit      -0.005134
 **** Fit      -0.003217
 **** Fit      -0.001631
 **** Fit      -0.000275
 **** Fit       0.000949
 **** Fit      -0.022768
 **** Fit      -0.017421
 **** Fit      -0.013174
 **** Fit      -0.009728
 **** Fit      -0.006919
 **** Fit      -0.004628
 **** Fit      -0.002750
 **** Fit      -0.001189
 **** Fit       0.000151
 **** Fit       0.001368
 **** Fit      -0.027518
 **** Fit      -0.021703
 **** Fit      -0.016843
 **** Fit      -0.012777
 **** Fit      -0.009409
 **** Fit      -0.006641
 **** Fit      -0.004374
 **** Fit      -0.002511
 **** Fit      -0.000957
 **** Fit       0.000381
 **** Fit       0.001599
 **** Fit       0.002798
 **** Fit      -0.025535
 **** Fit      -0.020038
 **** Fit      -0.015313
 **** Fit      -0.011382
 **** Fit      -0.008164
 **** Fit      -0.005545
 **** Fit      -0.003411
 **** Fit      -0.001653
 **** Fit      -0.000168
 **** Fit       0.001141
 **** Fit       0.002381
 **** Fit      -0.020329
 **** Fit      -0.015072
 **** Fit      -0.010855
 **** Fit      -0.007501
 **** Fit      -0.004828
 **** Fit      -0.002675
 **** Fit      -0.000903
 **** Fit       0.000613
 **** Fit       0.001997
 **** Fit      -0.024694
 **** Fit      -0.017903
 **** Fit      -0.012649
 **** Fit      -0.008602
 **** Fit      -0.005462
 **** Fit      -0.002984
 **** Fit      -0.000974
 **** Fit       0.000736
 **** Fit       0.002307
 **** Fit      -0.020795
 **** Fit      -0.014487
 **** Fit      -0.009735
 **** Fit      -0.006116
 **** Fit      -0.003301
 **** Fit      -0.001035
 **** Fit       0.000895
 **** Fit      -0.017404
 **** Fit      -0.011428
 **** Fit      -0.006973
 **** Fit      -0.003579
 **** Fit      -0.000881
 **** Fit       0.001421
 **** Fit      -0.019360
 **** Fit      -0.012637
 **** Fit      -0.007483
 **** Fit      -0.003536
 **** Fit      -0.000380
 **** Fit       0.032168
 **** Fit       0.031290
 **** Fit       0.030680
 **** Fit       0.032754
 **** Fit       0.031856
 **** Fit       0.030948
 **** Fit       0.030059
 **** Fit       0.029268
 **** Fit       0.028818
 **** Fit       0.033639
 **** Fit       0.032716
 **** Fit       0.031835
 **** Fit       0.030943
 **** Fit       0.030054
 **** Fit       0.029167
 **** Fit       0.028249
 **** Fit       0.027327
 **** Fit       0.033845
 **** Fit       0.032888
 **** Fit       0.032030
 **** Fit       0.031145
 **** Fit       0.030242
 **** Fit       0.029389
 **** Fit       0.028601
 **** Fit       0.027778
 **** Fit       0.026807
 **** Fit       0.033579
 **** Fit       0.032681
 **** Fit       0.031900
 **** Fit       0.031067
 **** Fit       0.030142
 **** Fit       0.029207
 **** Fit       0.028415
 **** Fit       0.032209
 **** Fit       0.031526
 **** Fit       0.030781
 **** Fit       0.029857
 **** Fit       0.028766
 **** Fit       0.031231
 **** Fit       0.030726
 **** Fit       0.030164
 **** Fit       0.029372
 **** Fit       0.028264
 **** Fit       0.029669
 **** Fit       0.029390
 **** Fit       0.029000
 **** Fit       0.028297
 **** Fit       0.027133
 **** Fit       0.027772
 **** Fit       0.014615
 **** Fit       0.013543
 **** Fit       0.014094
 **** Fit       0.015126
 **** Fit       0.015669
 **** Fit       0.015169
 **** Fit       0.014081
 **** Fit       0.012415
 **** Fit       0.012811
 **** Fit       0.013648
 **** Fit       0.014676
 **** Fit       0.015676
 **** Fit       0.016436
 **** Fit       0.016754
 **** Fit       0.016510
 **** Fit       0.015733
 **** Fit       0.014619
 **** Fit       0.013476
 **** Fit       0.012651
 **** Fit       0.011203
 **** Fit       0.011626
 **** Fit       0.017153
 **** Fit       0.017713
 **** Fit       0.017940
 **** Fit       0.017770
 **** Fit       0.017202
 **** Fit       0.016298
 **** Fit       0.015163
 **** Fit       0.013930
 **** Fit       0.012755
 **** Fit       0.011811
 **** Fit       0.011260
 **** Fit       0.009877
 **** Fit       0.018944
 **** Fit       0.019274
 **** Fit       0.019279
 **** Fit       0.018923
 **** Fit       0.018225
 **** Fit       0.017243
 **** Fit       0.016054
 **** Fit       0.014738
 **** Fit       0.013382
 **** Fit       0.012085
 **** Fit       0.010966
 **** Fit       0.010154
 **** Fit       0.009769
 **** Fit       0.008399
 **** Fit       0.021013
 **** Fit       0.020967
 **** Fit       0.020550
 **** Fit       0.019779
 **** Fit       0.018721
 **** Fit       0.017451
 **** Fit       0.016037
 **** Fit       0.014537
 **** Fit       0.013009
 **** Fit       0.011522
 **** Fit       0.010167
 **** Fit       0.009059
 **** Fit       0.008327
 **** Fit       0.008084
 **** Fit       0.023180
 **** Fit       0.022651
 **** Fit       0.021735
 **** Fit       0.020520
 **** Fit       0.019101
 **** Fit       0.017550
 **** Fit       0.015917
 **** Fit       0.014235
 **** Fit       0.012536
 **** Fit       0.010862
 **** Fit       0.009279
 **** Fit       0.007886
 **** Fit       0.006805
 **** Fit       0.006172
 **** Fit       0.006111
 **** Fit       0.026226
 **** Fit       0.025443
 **** Fit       0.024152
 **** Fit       0.022513
 **** Fit       0.020687
 **** Fit       0.018776
 **** Fit       0.016824
 **** Fit       0.014850
 **** Fit       0.012864
 **** Fit       0.010876
 **** Fit       0.008921
 **** Fit       0.007072
 **** Fit       0.005454
 **** Fit       0.004231
 **** Fit       0.003582
 **** Fit       0.027556
 **** Fit       0.025228
 **** Fit       0.022778
 **** Fit       0.020354
 **** Fit       0.017990
 **** Fit       0.015672
 **** Fit       0.013380
 **** Fit       0.011089
 **** Fit       0.008779
 **** Fit       0.006475
 **** Fit       0.004277
 **** Fit       0.002355
 **** Fit       0.026874
 **** Fit       0.023474
 **** Fit       0.020389
 **** Fit       0.017529
 **** Fit       0.014807
 **** Fit       0.012154
 **** Fit       0.009480
 **** Fit       0.006700
 **** Fit       0.003827
 **** Fit       0.001005
 **** Fit       0.009675
 **** Fit       0.010307
 **** Fit       0.011294
 **** Fit       0.008275
 **** Fit       0.009017
 **** Fit       0.009945
 **** Fit       0.010931
 **** Fit       0.011952
 **** Fit       0.007969
 **** Fit       0.006821
 **** Fit       0.007750
 **** Fit       0.008779
 **** Fit       0.009807
 **** Fit       0.010800
 **** Fit       0.011783
 **** Fit       0.006074
 **** Fit       0.006175
 **** Fit       0.005214
 **** Fit       0.006379
 **** Fit       0.007584
 **** Fit       0.008745
 **** Fit       0.009828
 **** Fit       0.010841
 **** Fit       0.011833
 **** Fit       0.012887
 **** Fit       0.003669
 **** Fit       0.004237
 **** Fit       0.003349
 **** Fit       0.004765
 **** Fit       0.006169
 **** Fit       0.007492
 **** Fit       0.008705
 **** Fit       0.009811
 **** Fit       0.010840
 **** Fit       0.011848
 **** Fit       0.012922
 **** Fit       0.000530
 **** Fit       0.001015
 **** Fit       0.002039
 **** Fit       0.001119
 **** Fit       0.002916
 **** Fit       0.004636
 **** Fit       0.006222
 **** Fit       0.007653
 **** Fit       0.008937
 **** Fit       0.010105
 **** Fit       0.011211
 **** Fit       0.012332
 **** Fit      -0.003309
 **** Fit      -0.002213
 **** Fit      -0.000649
 **** Fit      -0.001595
 **** Fit       0.000650
 **** Fit       0.002736
 **** Fit       0.004626
 **** Fit       0.006312
 **** Fit       0.007812
 **** Fit       0.009159
 **** Fit       0.010404
 **** Fit       0.011617
 **** Fit       0.012895
 **** Fit      -0.008062
 **** Fit      -0.006156
 **** Fit      -0.003915
 **** Fit      -0.004930
 **** Fit      -0.002070
 **** Fit       0.000510
 **** Fit       0.002801
 **** Fit       0.004820
 **** Fit       0.006601
 **** Fit       0.008188
 **** Fit       0.009639
 **** Fit       0.011027
 **** Fit       0.012444
 **** Fit      -0.014289
 **** Fit      -0.011222
 **** Fit      -0.008021
 **** Fit      -0.009042
 **** Fit      -0.005221
 **** Fit      -0.001899
 **** Fit       0.000973
 **** Fit       0.003456
 **** Fit       0.005621
 **** Fit       0.007541
 **** Fit       0.009297
 **** Fit       0.010985
 **** Fit       0.012719
 **** Fit      -0.013381
 **** Fit      -0.014103
 **** Fit      -0.008883
 **** Fit      -0.004539
 **** Fit      -0.000899
 **** Fit       0.002183
 **** Fit       0.004840
 **** Fit       0.007195
 **** Fit       0.009372
 **** Fit       0.011503
 **** Fit      -0.013185
 **** Fit      -0.007554
 **** Fit      -0.002982
 **** Fit       0.000818
 **** Fit       0.004073
 **** Fit       0.006975
 **** Fit       0.009702
 **** Fit      -0.010008
 **** Fit      -0.004152
 **** Fit       0.000622
 **** Fit       0.004725
 **** Fit       0.008491
 **** Fit      -0.004662
 **** Fit       0.001306
 **** Fit       0.018602
 **** Fit       0.016961
 **** Fit       0.017917
 **** Fit       0.018893
 **** Fit       0.019824
 **** Fit       0.020667
 **** Fit       0.016737
 **** Fit       0.017696
 **** Fit       0.018703
 **** Fit       0.019712
 **** Fit       0.020701
 **** Fit       0.021652
 **** Fit       0.022540
 **** Fit       0.015949
 **** Fit       0.016845
 **** Fit       0.017851
 **** Fit       0.018904
 **** Fit       0.019974
 **** Fit       0.021055
 **** Fit       0.022154
 **** Fit       0.023273
 **** Fit       0.024388
 **** Fit       0.025430
 **** Fit       0.016092
 **** Fit       0.017029
 **** Fit       0.018058
 **** Fit       0.019131
 **** Fit       0.020229
 **** Fit       0.021357
 **** Fit       0.022534
 **** Fit       0.023791
 **** Fit       0.025153
 **** Fit       0.026611
 **** Fit       0.028087
 **** Fit       0.015826
 **** Fit       0.016774
 **** Fit       0.017840
 **** Fit       0.018963
 **** Fit       0.020118
 **** Fit       0.021309
 **** Fit       0.022563
 **** Fit       0.023927
 **** Fit       0.025465
 **** Fit       0.027245
 **** Fit       0.029306
 **** Fit       0.031587
 **** Fit       0.016567
 **** Fit       0.017644
 **** Fit       0.018786
 **** Fit       0.019963
 **** Fit       0.021174
 **** Fit       0.022444
 **** Fit       0.023824
 **** Fit       0.025393
 **** Fit       0.027260
 **** Fit       0.029565
 **** Fit       0.032453
 **** Fit       0.016690
 **** Fit       0.017815
 **** Fit       0.018995
 **** Fit       0.020203
 **** Fit       0.021443
 **** Fit       0.022745
 **** Fit       0.024167
 **** Fit       0.025805
 **** Fit       0.027805
 **** Fit       0.030386
 **** Fit       0.017501
 **** Fit       0.018746
 **** Fit       0.020012
 **** Fit       0.021297
 **** Fit       0.022626
 **** Fit       0.024057
 **** Fit       0.025694
 **** Fit       0.027708
 **** Fit       0.030384
 **** Fit       0.017620
 **** Fit       0.018966
 **** Fit       0.020310
 **** Fit       0.021647
 **** Fit       0.023008
 **** Fit       0.024460
 **** Fit       0.026129
 **** Fit       0.028236
 **** Fit       0.031181
 **** Fit       0.019513
 **** Fit       0.020910
 **** Fit       0.022254
 **** Fit       0.023576
 **** Fit       0.024943
 **** Fit       0.026484
 **** Fit       0.028432
 **** Fit       0.022780
 **** Fit       0.024105
 **** Fit       0.025351
 **** Fit       0.026612
 **** Fit       0.026618
 **** Fit       0.027479
 -----------------------------------------------------------------
 Leave Link  602 at Sat Dec  7 01:15:43 2019, MaxMem=   33554432 cpu:       5.7

 Test job not archived.
 1\1\GINC-MOSURA\FOpt\RHF\6-31G(d)\C20H36N4O4\MARIE\07-Dec-2019\0\\#HF/
 6-31G* SCF=tight Test Pop=MK iop(6/33=2) iop(6/42=6) opt\\remark line 
 goes here\\0,1\C,5.9975402386,-3.7046085121,0.484677985\N,5.3908857123
 ,-2.4504057091,0.0906878375\C,5.4808344875,-1.3701790754,0.8981574301\
 O,5.8630689232,-1.4421528811,2.033723584\C,4.9204045842,-0.0476190362,
 0.3402568945\C,5.5289280594,1.1361708474,1.0985095145\C,3.3775233953,-
 0.0806060857,0.4729729511\C,2.8200231121,-0.2157434665,1.8925149111\C,
 1.2860813601,-0.3162651131,1.9121223991\C,0.5987222944,0.9468222211,1.
 4597911476\C,-0.2876702574,1.1055886572,0.4895841213\C,-0.8510792608,0
 .0511124945,-0.431941636\C,-2.2730182285,-0.4073321532,-0.0611477606\C
 ,-3.3039463309,0.7254052587,-0.1218874424\C,-4.7839468692,0.2994093583
 ,0.0238181324\C,-5.0023780386,-0.4781101848,1.3282734024\N,-5.13262255
 52,-0.5332208057,-1.1240794573\C,-6.4297692039,-0.8612054558,-1.391011
 751\C,-6.6804622747,-1.4024609431,-2.780233476\O,-7.3114232185,-0.7291
 155585,-0.5875608268\C,-5.5922837581,1.6147656832,-0.0870324697\O,-5.6
 678318744,2.171893072,-1.1504504503\N,-6.1018480153,2.1436298259,1.043
 6555368\C,-6.922465142,3.3365625271,0.9836710443\N,5.1827243506,0.0676
 247821,-1.1009201439\C,6.4331970953,0.0988229581,-1.6423777595\C,6.500
 9349638,0.5742195897,-3.0785692175\O,7.4097320696,-0.2363402112,-1.033
 8238329\H,5.6931982032,-4.4717826526,-0.2157818022\H,7.0805136098,-3.6
 432661698,0.4969602829\H,5.6584944685,-3.9777480129,1.4727636621\H,5.2
 838546733,-2.2781251949,-0.8811038725\H,6.5945547615,1.1868389836,0.92
 62217963\H,5.0710361641,2.0592118742,0.7537143557\H,5.3703226382,1.038
 7931117,2.1613994774\H,2.9918401845,0.8344149287,0.0294692\H,3.0057928
 583,-0.9028284629,-0.1328650265\H,3.1256941467,0.6335356878,2.49522719
 91\H,3.2336261065,-1.094841299,2.371809472\H,0.9782925442,-0.521472261
 2,2.935630794\H,0.9684662435,-1.1697238927,1.3234003116\H,0.8759334283
 ,1.8264537588,2.022196943\H,-0.670674401,2.1019437391,0.3347218065\H,-
 0.2062364966,-0.819696917,-0.4517435518\H,-0.8623738132,0.4460663889,-
 1.4462573817\H,-2.5618366068,-1.2068489805,-0.7375290647\H,-2.24792071
 35,-0.8366854892,0.9347865439\H,-3.2079179961,1.2597766654,-1.06275364
 63\H,-3.0944169229,1.4473042695,0.6610579527\H,-4.4949123795,-1.431528
 0738,1.2684837577\H,-4.5919542446,0.0642294805,2.174683258\H,-6.050245
 8142,-0.6770810856,1.4993648407\H,-4.5676283174,-0.3860411423,-1.93093
 08988\H,-7.6020049301,-1.9661471386,-2.7781695423\H,-6.7857739896,-0.5
 669332187,-3.4658442783\H,-5.8661251774,-2.0290218781,-3.1257831054\H,
 -6.2341707129,1.542816013,1.8221509395\H,-6.394664626,4.114351394,0.45
 21764805\H,-7.1196263164,3.6712345606,1.9936907137\H,-7.8641370327,3.1
 528556695,0.4782878504\H,4.4573449786,0.4908478514,-1.6359569433\H,6.5
 220383435,1.6598635851,-3.0932981505\H,7.4128591228,0.2072132402,-3.52
 63820524\H,5.6479023964,0.2443585842,-3.6611789883\\Version=EM64L-G09R
 evA.02\State=1-A\HF=-1295.629097\RMSD=5.308e-09\RMSF=1.560e-06\Dipole=
 -0.5690006,0.0351723,-1.3219256\Quadrupole=-39.5117445,18.1292103,21.3
 825342,5.4493741,-25.164696,9.4552981\PG=C01 [X(C20H36N4O4)]\\@


 IN NATURE THERE ARE NEITHER REWARDS OR
 PUNISHMENTS -- THERE ARE CONSEQUENCES.

                            -- ROBERT GREEN INGERSOLL
 Job cpu time:  0 days  2 hours 35 minutes 45.1 seconds.
 File lengths (MBytes):  RWF=    156 Int=      0 D2E=      0 Chk=     19 Scr=      1
 Normal termination of Gaussian 09 at Sat Dec  7 01:15:44 2019.
