 Entering Gaussian System, Link 0=g09
 Input=17.gau
 Output=17.log
 Initial command:
 /home/marie/Utilities//g09/l1.exe /tmp/g09/Gau-9597.inp -scrdir=/tmp/g09/
 Entering Link 1 = /home/marie/Utilities//g09/l1.exe PID=      9599.
  
 Copyright (c) 1988,1990,1992,1993,1995,1998,2003,2009, Gaussian, Inc.
                  All Rights Reserved.
  
 This is part of the Gaussian(R) 09 program.  It is based on
 the Gaussian(R) 03 system (copyright 2003, Gaussian, Inc.),
 the Gaussian(R) 98 system (copyright 1998, Gaussian, Inc.),
 the Gaussian(R) 94 system (copyright 1995, Gaussian, Inc.),
 the Gaussian 92(TM) system (copyright 1992, Gaussian, Inc.),
 the Gaussian 90(TM) system (copyright 1990, Gaussian, Inc.),
 the Gaussian 88(TM) system (copyright 1988, Gaussian, Inc.),
 the Gaussian 86(TM) system (copyright 1986, Carnegie Mellon
 University), and the Gaussian 82(TM) system (copyright 1983,
 Carnegie Mellon University). Gaussian is a federally registered
 trademark of Gaussian, Inc.
  
 This software contains proprietary and confidential information,
 including trade secrets, belonging to Gaussian, Inc.
  
 This software is provided under written license and may be
 used, copied, transmitted, or stored only in accord with that
 written license.
  
 The following legend is applicable only to US Government
 contracts under FAR:
  
                    RESTRICTED RIGHTS LEGEND
  
 Use, reproduction and disclosure by the US Government is
 subject to restrictions as set forth in subparagraphs (a)
 and (c) of the Commercial Computer Software - Restricted
 Rights clause in FAR 52.227-19.
  
 Gaussian, Inc.
 340 Quinnipiac St., Bldg. 40, Wallingford CT 06492
  
  
 ---------------------------------------------------------------
 Warning -- This program may not be used in any manner that
 competes with the business of Gaussian, Inc. or will provide
 assistance to any competitor of Gaussian, Inc.  The licensee
 of this program is prohibited from giving any competitor of
 Gaussian, Inc. access to this program.  By using this program,
 the user acknowledges that Gaussian, Inc. is engaged in the
 business of creating and licensing software in the field of
 computational chemistry and represents and warrants to the
 licensee that it is not a competitor of Gaussian, Inc. and that
 it will not use this program in any manner prohibited above.
 ---------------------------------------------------------------
  

 Cite this work as:
 Gaussian 09, Revision A.02,
 M. J. Frisch, G. W. Trucks, H. B. Schlegel, G. E. Scuseria, 
 M. A. Robb, J. R. Cheeseman, G. Scalmani, V. Barone, B. Mennucci, 
 G. A. Petersson, H. Nakatsuji, M. Caricato, X. Li, H. P. Hratchian, 
 A. F. Izmaylov, J. Bloino, G. Zheng, J. L. Sonnenberg, M. Hada, 
 M. Ehara, K. Toyota, R. Fukuda, J. Hasegawa, M. Ishida, T. Nakajima, 
 Y. Honda, O. Kitao, H. Nakai, T. Vreven, J. A. Montgomery, Jr., 
 J. E. Peralta, F. Ogliaro, M. Bearpark, J. J. Heyd, E. Brothers, 
 K. N. Kudin, V. N. Staroverov, R. Kobayashi, J. Normand, 
 K. Raghavachari, A. Rendell, J. C. Burant, S. S. Iyengar, J. Tomasi, 
 M. Cossi, N. Rega, J. M. Millam, M. Klene, J. E. Knox, J. B. Cross, 
 V. Bakken, C. Adamo, J. Jaramillo, R. Gomperts, R. E. Stratmann, 
 O. Yazyev, A. J. Austin, R. Cammi, C. Pomelli, J. W. Ochterski, 
 R. L. Martin, K. Morokuma, V. G. Zakrzewski, G. A. Voth, 
 P. Salvador, J. J. Dannenberg, S. Dapprich, A. D. Daniels, 
 O. Farkas, J. B. Foresman, J. V. Ortiz, J. Cioslowski, 
 and D. J. Fox, Gaussian, Inc., Wallingford CT, 2009.
 
 ******************************************
 Gaussian 09:  EM64L-G09RevA.02 11-Jun-2009
                 6-Dec-2019 
 ******************************************
 %chk=conf17
 ------------------------------------------------------------
 #HF/6-31G* SCF=tight Test Pop=MK iop(6/33=2) iop(6/42=6) opt
 ------------------------------------------------------------
 1/18=20,19=15,38=1/1,3;
 2/9=110,12=2,17=6,18=5,40=1/2;
 3/5=1,6=6,7=1,11=9,16=1,25=1,30=1,71=1/1,2,3;
 4//1;
 5/5=2,32=2,38=5/2;
 6/7=2,8=2,9=2,10=2,15=8,20=1,28=1,33=2,42=6/1,2;
 7//1,2,3,16;
 1/18=20,19=15/3(2);
 2/9=110/2;
 99//99;
 2/9=110/2;
 3/5=1,6=6,7=1,11=9,16=1,25=1,30=1,71=1/1,2,3;
 4/5=5,16=3/1;
 5/5=2,32=2,38=5/2;
 7//1,2,3,16;
 1/18=20,19=15/3(-5);
 2/9=110/2;
 6/7=2,8=2,9=2,10=2,15=8,19=2,20=1,28=1,33=2,42=6/1,2;
 99/9=1/99;
 ---------------------
 remark line goes here
 ---------------------
 Symbolic Z-matrix:
 Charge =  0 Multiplicity = 1
 C                    -6.639     2.999    -0.152 
 N                    -5.515     2.131     0.098 
 C                    -5.623     0.772    -0.13 
 O                    -6.602     0.283    -0.699 
 C                    -4.367    -0.091     0.227 
 C                    -3.714     0.333     1.553 
 C                    -3.364     0.092    -0.945 
 C                    -2.08     -0.74     -0.818 
 C                    -1.168    -0.532    -2.031 
 C                     0.084    -1.354    -1.91 
 C                     1.343    -0.904    -1.79 
 C                     1.796     0.529    -1.774 
 C                     1.829     1.142    -0.372 
 C                     2.755     0.473     0.657 
 C                     4.286     0.535     0.385 
 C                     4.72      1.979     0.086 
 N                     4.625    -0.413    -0.698 
 C                     5.836    -0.41     -1.359 
 C                     6.051    -1.629    -2.217 
 O                     6.679     0.475    -1.276 
 C                     4.985    -0.043     1.663 
 O                     5.314    -1.23      1.736 
 N                     5.088     0.809     2.745 
 C                     5.761     0.38      3.946 
 N                    -4.831    -1.496     0.237 
 C                    -5.543    -2.043     1.286 
 C                    -6.138    -3.39      0.968 
 O                    -5.701    -1.51      2.377 
 H                    -6.292     4.034    -0.12 
 H                    -7.074     2.782    -1.131 
 H                    -7.39      2.835     0.625 
 H                    -4.828     2.453     0.766 
 H                    -4.46      0.571     2.319 
 H                    -3.104     1.235     1.428 
 H                    -3.063    -0.453     1.95 
 H                    -3.091     1.152    -1.033 
 H                    -3.86     -0.169    -1.89 
 H                    -1.538    -0.457     0.091 
 H                    -2.332    -1.804    -0.727 
 H                    -1.692    -0.836    -2.946 
 H                    -0.944     0.533    -2.137 
 H                    -0.068    -2.434    -1.917 
 H                     2.135    -1.646    -1.708 
 H                     2.78      0.598    -2.251 
 H                     1.14      1.137    -2.408 
 H                     2.084     2.205    -0.462 
 H                     0.81      1.122     0.037 
 H                     2.553     0.962     1.621 
 H                     2.446    -0.572     0.799 
 H                     5.793     2.127     0.246 
 H                     4.212     2.693     0.744 
 H                     4.491     2.261    -0.948 
 H                     4.285    -1.351    -0.512 
 H                     5.103    -2.12     -2.458 
 H                     6.697    -2.332    -1.686 
 H                     6.525    -1.328    -3.156 
 H                     5.031     1.805     2.582 
 H                     6.837     0.353     3.756 
 H                     5.543     1.097     4.741 
 H                     5.417    -0.616     4.238 
 H                    -5.155    -1.815    -0.669 
 H                    -7.198    -3.266     0.733 
 H                    -6.026    -4.045     1.837 
 H                    -5.633    -3.861     0.12 
 

 GradGradGradGradGradGradGradGradGradGradGradGradGradGradGradGradGradGrad
 Berny optimization.
 Initialization pass.
                           ----------------------------
                           !    Initial Parameters    !
                           ! (Angstroms and Degrees)  !
 --------------------------                            --------------------------
 ! Name  Definition              Value          Derivative Info.                !
 --------------------------------------------------------------------------------
 ! R1    R(1,2)                  1.442          estimate D2E/DX2                !
 ! R2    R(1,29)                 1.0921         estimate D2E/DX2                !
 ! R3    R(1,30)                 1.093          estimate D2E/DX2                !
 ! R4    R(1,31)                 1.093          estimate D2E/DX2                !
 ! R5    R(2,3)                  1.3822         estimate D2E/DX2                !
 ! R6    R(2,32)                 1.0109         estimate D2E/DX2                !
 ! R7    R(3,4)                  1.2334         estimate D2E/DX2                !
 ! R8    R(3,5)                  1.5652         estimate D2E/DX2                !
 ! R9    R(5,6)                  1.5377         estimate D2E/DX2                !
 ! R10   R(5,7)                  1.5534         estimate D2E/DX2                !
 ! R11   R(5,25)                 1.4797         estimate D2E/DX2                !
 ! R12   R(6,33)                 1.0954         estimate D2E/DX2                !
 ! R13   R(6,34)                 1.0961         estimate D2E/DX2                !
 ! R14   R(6,35)                 1.0951         estimate D2E/DX2                !
 ! R15   R(7,8)                  1.5353         estimate D2E/DX2                !
 ! R16   R(7,36)                 1.0981         estimate D2E/DX2                !
 ! R17   R(7,37)                 1.0987         estimate D2E/DX2                !
 ! R18   R(8,9)                  1.5318         estimate D2E/DX2                !
 ! R19   R(8,38)                 1.0955         estimate D2E/DX2                !
 ! R20   R(8,39)                 1.0972         estimate D2E/DX2                !
 ! R21   R(9,10)                 1.5026         estimate D2E/DX2                !
 ! R22   R(9,40)                 1.0974         estimate D2E/DX2                !
 ! R23   R(9,41)                 1.0935         estimate D2E/DX2                !
 ! R24   R(10,11)                1.3424         estimate D2E/DX2                !
 ! R25   R(10,42)                1.0907         estimate D2E/DX2                !
 ! R26   R(11,12)                1.503          estimate D2E/DX2                !
 ! R27   R(11,43)                1.0884         estimate D2E/DX2                !
 ! R28   R(12,13)                1.5305         estimate D2E/DX2                !
 ! R29   R(12,44)                1.0957         estimate D2E/DX2                !
 ! R30   R(12,45)                1.0963         estimate D2E/DX2                !
 ! R31   R(13,14)                1.5375         estimate D2E/DX2                !
 ! R32   R(13,46)                1.0969         estimate D2E/DX2                !
 ! R33   R(13,47)                1.0982         estimate D2E/DX2                !
 ! R34   R(14,15)                1.5562         estimate D2E/DX2                !
 ! R35   R(14,48)                1.0996         estimate D2E/DX2                !
 ! R36   R(14,49)                1.0989         estimate D2E/DX2                !
 ! R37   R(15,16)                1.5372         estimate D2E/DX2                !
 ! R38   R(15,17)                1.4787         estimate D2E/DX2                !
 ! R39   R(15,21)                1.5672         estimate D2E/DX2                !
 ! R40   R(16,50)                1.0949         estimate D2E/DX2                !
 ! R41   R(16,51)                1.0958         estimate D2E/DX2                !
 ! R42   R(16,52)                1.096          estimate D2E/DX2                !
 ! R43   R(17,18)                1.3797         estimate D2E/DX2                !
 ! R44   R(17,53)                1.0149         estimate D2E/DX2                !
 ! R45   R(18,19)                1.5061         estimate D2E/DX2                !
 ! R46   R(18,20)                1.2251         estimate D2E/DX2                !
 ! R47   R(19,54)                1.0945         estimate D2E/DX2                !
 ! R48   R(19,55)                1.0925         estimate D2E/DX2                !
 ! R49   R(19,56)                1.0941         estimate D2E/DX2                !
 ! R50   R(21,22)                1.2339         estimate D2E/DX2                !
 ! R51   R(21,23)                1.381          estimate D2E/DX2                !
 ! R52   R(23,24)                1.442          estimate D2E/DX2                !
 ! R53   R(23,57)                1.0109         estimate D2E/DX2                !
 ! R54   R(24,58)                1.093          estimate D2E/DX2                !
 ! R55   R(24,59)                1.0925         estimate D2E/DX2                !
 ! R56   R(24,60)                1.0934         estimate D2E/DX2                !
 ! R57   R(25,26)                1.3808         estimate D2E/DX2                !
 ! R58   R(25,61)                1.0137         estimate D2E/DX2                !
 ! R59   R(26,27)                1.5065         estimate D2E/DX2                !
 ! R60   R(26,28)                1.2245         estimate D2E/DX2                !
 ! R61   R(27,62)                1.0928         estimate D2E/DX2                !
 ! R62   R(27,63)                1.094          estimate D2E/DX2                !
 ! R63   R(27,64)                1.0936         estimate D2E/DX2                !
 ! A1    A(2,1,29)             108.5257         estimate D2E/DX2                !
 ! A2    A(2,1,30)             110.2423         estimate D2E/DX2                !
 ! A3    A(2,1,31)             108.785          estimate D2E/DX2                !
 ! A4    A(29,1,30)            109.9283         estimate D2E/DX2                !
 ! A5    A(29,1,31)            109.8582         estimate D2E/DX2                !
 ! A6    A(30,1,31)            109.4804         estimate D2E/DX2                !
 ! A7    A(1,2,3)              120.1547         estimate D2E/DX2                !
 ! A8    A(1,2,32)             116.9085         estimate D2E/DX2                !
 ! A9    A(3,2,32)             118.378          estimate D2E/DX2                !
 ! A10   A(2,3,4)              121.8645         estimate D2E/DX2                !
 ! A11   A(2,3,5)              116.2182         estimate D2E/DX2                !
 ! A12   A(4,3,5)              121.5718         estimate D2E/DX2                !
 ! A13   A(3,5,6)              112.6708         estimate D2E/DX2                !
 ! A14   A(3,5,7)              106.3254         estimate D2E/DX2                !
 ! A15   A(3,5,25)             105.8699         estimate D2E/DX2                !
 ! A16   A(6,5,7)              110.1163         estimate D2E/DX2                !
 ! A17   A(6,5,25)             112.9026         estimate D2E/DX2                !
 ! A18   A(7,5,25)             108.6286         estimate D2E/DX2                !
 ! A19   A(5,6,33)             111.9453         estimate D2E/DX2                !
 ! A20   A(5,6,34)             111.4027         estimate D2E/DX2                !
 ! A21   A(5,6,35)             111.5408         estimate D2E/DX2                !
 ! A22   A(33,6,34)            106.2582         estimate D2E/DX2                !
 ! A23   A(33,6,35)            107.8959         estimate D2E/DX2                !
 ! A24   A(34,6,35)            107.528          estimate D2E/DX2                !
 ! A25   A(5,7,8)              114.4408         estimate D2E/DX2                !
 ! A26   A(5,7,36)             109.554          estimate D2E/DX2                !
 ! A27   A(5,7,37)             109.2355         estimate D2E/DX2                !
 ! A28   A(8,7,36)             108.7733         estimate D2E/DX2                !
 ! A29   A(8,7,37)             108.6612         estimate D2E/DX2                !
 ! A30   A(36,7,37)            105.8196         estimate D2E/DX2                !
 ! A31   A(7,8,9)              111.0295         estimate D2E/DX2                !
 ! A32   A(7,8,38)             110.0246         estimate D2E/DX2                !
 ! A33   A(7,8,39)             109.8951         estimate D2E/DX2                !
 ! A34   A(9,8,38)             109.1126         estimate D2E/DX2                !
 ! A35   A(9,8,39)             109.5177         estimate D2E/DX2                !
 ! A36   A(38,8,39)            107.1768         estimate D2E/DX2                !
 ! A37   A(8,9,10)             110.9794         estimate D2E/DX2                !
 ! A38   A(8,9,40)             109.7775         estimate D2E/DX2                !
 ! A39   A(8,9,41)             109.3288         estimate D2E/DX2                !
 ! A40   A(10,9,40)            108.2681         estimate D2E/DX2                !
 ! A41   A(10,9,41)            111.7114         estimate D2E/DX2                !
 ! A42   A(40,9,41)            106.6669         estimate D2E/DX2                !
 ! A43   A(9,10,11)            127.2489         estimate D2E/DX2                !
 ! A44   A(9,10,42)            115.1545         estimate D2E/DX2                !
 ! A45   A(11,10,42)           117.5957         estimate D2E/DX2                !
 ! A46   A(10,11,12)           127.1029         estimate D2E/DX2                !
 ! A47   A(10,11,43)           117.4315         estimate D2E/DX2                !
 ! A48   A(12,11,43)           115.4599         estimate D2E/DX2                !
 ! A49   A(11,12,13)           113.4608         estimate D2E/DX2                !
 ! A50   A(11,12,44)           109.0312         estimate D2E/DX2                !
 ! A51   A(11,12,45)           110.014          estimate D2E/DX2                !
 ! A52   A(13,12,44)           110.7445         estimate D2E/DX2                !
 ! A53   A(13,12,45)           108.6941         estimate D2E/DX2                !
 ! A54   A(44,12,45)           104.518          estimate D2E/DX2                !
 ! A55   A(12,13,14)           116.8584         estimate D2E/DX2                !
 ! A56   A(12,13,46)           108.5424         estimate D2E/DX2                !
 ! A57   A(12,13,47)           108.2918         estimate D2E/DX2                !
 ! A58   A(14,13,46)           109.6692         estimate D2E/DX2                !
 ! A59   A(14,13,47)           107.5576         estimate D2E/DX2                !
 ! A60   A(46,13,47)           105.3031         estimate D2E/DX2                !
 ! A61   A(13,14,15)           117.2717         estimate D2E/DX2                !
 ! A62   A(13,14,48)           106.4145         estimate D2E/DX2                !
 ! A63   A(13,14,49)           109.3233         estimate D2E/DX2                !
 ! A64   A(15,14,48)           108.4349         estimate D2E/DX2                !
 ! A65   A(15,14,49)           109.7            estimate D2E/DX2                !
 ! A66   A(48,14,49)           104.9475         estimate D2E/DX2                !
 ! A67   A(14,15,16)           110.4376         estimate D2E/DX2                !
 ! A68   A(14,15,17)           109.1483         estimate D2E/DX2                !
 ! A69   A(14,15,21)           106.3544         estimate D2E/DX2                !
 ! A70   A(16,15,17)           113.2697         estimate D2E/DX2                !
 ! A71   A(16,15,21)           112.2816         estimate D2E/DX2                !
 ! A72   A(17,15,21)           104.9846         estimate D2E/DX2                !
 ! A73   A(15,16,50)           112.0391         estimate D2E/DX2                !
 ! A74   A(15,16,51)           111.3701         estimate D2E/DX2                !
 ! A75   A(15,16,52)           111.4837         estimate D2E/DX2                !
 ! A76   A(50,16,51)           106.1697         estimate D2E/DX2                !
 ! A77   A(50,16,52)           107.9301         estimate D2E/DX2                !
 ! A78   A(51,16,52)           107.5777         estimate D2E/DX2                !
 ! A79   A(15,17,18)           123.4176         estimate D2E/DX2                !
 ! A80   A(15,17,53)           112.4265         estimate D2E/DX2                !
 ! A81   A(18,17,53)           112.5734         estimate D2E/DX2                !
 ! A82   A(17,18,19)           113.3582         estimate D2E/DX2                !
 ! A83   A(17,18,20)           124.9682         estimate D2E/DX2                !
 ! A84   A(19,18,20)           121.6728         estimate D2E/DX2                !
 ! A85   A(18,19,54)           111.4011         estimate D2E/DX2                !
 ! A86   A(18,19,55)           109.1683         estimate D2E/DX2                !
 ! A87   A(18,19,56)           109.154          estimate D2E/DX2                !
 ! A88   A(54,19,55)           109.3009         estimate D2E/DX2                !
 ! A89   A(54,19,56)           108.0411         estimate D2E/DX2                !
 ! A90   A(55,19,56)           109.7559         estimate D2E/DX2                !
 ! A91   A(15,21,22)           121.4646         estimate D2E/DX2                !
 ! A92   A(15,21,23)           116.4006         estimate D2E/DX2                !
 ! A93   A(22,21,23)           121.8191         estimate D2E/DX2                !
 ! A94   A(21,23,24)           120.2518         estimate D2E/DX2                !
 ! A95   A(21,23,57)           118.5108         estimate D2E/DX2                !
 ! A96   A(24,23,57)           116.9843         estimate D2E/DX2                !
 ! A97   A(23,24,58)           108.7856         estimate D2E/DX2                !
 ! A98   A(23,24,59)           108.5227         estimate D2E/DX2                !
 ! A99   A(23,24,60)           110.2781         estimate D2E/DX2                !
 ! A100  A(58,24,59)           109.8246         estimate D2E/DX2                !
 ! A101  A(58,24,60)           109.4896         estimate D2E/DX2                !
 ! A102  A(59,24,60)           109.9191         estimate D2E/DX2                !
 ! A103  A(5,25,26)            122.8878         estimate D2E/DX2                !
 ! A104  A(5,25,61)            113.1412         estimate D2E/DX2                !
 ! A105  A(26,25,61)           112.9249         estimate D2E/DX2                !
 ! A106  A(25,26,27)           113.4222         estimate D2E/DX2                !
 ! A107  A(25,26,28)           124.8199         estimate D2E/DX2                !
 ! A108  A(27,26,28)           121.7568         estimate D2E/DX2                !
 ! A109  A(26,27,62)           109.0891         estimate D2E/DX2                !
 ! A110  A(26,27,63)           109.1012         estimate D2E/DX2                !
 ! A111  A(26,27,64)           111.4928         estimate D2E/DX2                !
 ! A112  A(62,27,63)           109.7595         estimate D2E/DX2                !
 ! A113  A(62,27,64)           109.2711         estimate D2E/DX2                !
 ! A114  A(63,27,64)           108.1085         estimate D2E/DX2                !
 ! D1    D(29,1,2,3)          -167.9689         estimate D2E/DX2                !
 ! D2    D(29,1,2,32)           36.3516         estimate D2E/DX2                !
 ! D3    D(30,1,2,3)           -47.5242         estimate D2E/DX2                !
 ! D4    D(30,1,2,32)          156.7963         estimate D2E/DX2                !
 ! D5    D(31,1,2,3)            72.5331         estimate D2E/DX2                !
 ! D6    D(31,1,2,32)          -83.1464         estimate D2E/DX2                !
 ! D7    D(1,2,3,4)              9.0515         estimate D2E/DX2                !
 ! D8    D(1,2,3,5)           -177.5995         estimate D2E/DX2                !
 ! D9    D(32,2,3,4)           164.3803         estimate D2E/DX2                !
 ! D10   D(32,2,3,5)           -22.2707         estimate D2E/DX2                !
 ! D11   D(2,3,5,6)             41.8302         estimate D2E/DX2                !
 ! D12   D(2,3,5,7)            -78.8825         estimate D2E/DX2                !
 ! D13   D(2,3,5,25)           165.6936         estimate D2E/DX2                !
 ! D14   D(4,3,5,6)           -144.7997         estimate D2E/DX2                !
 ! D15   D(4,3,5,7)             94.4876         estimate D2E/DX2                !
 ! D16   D(4,3,5,25)           -20.9363         estimate D2E/DX2                !
 ! D17   D(3,5,6,33)            40.4965         estimate D2E/DX2                !
 ! D18   D(3,5,6,34)           -78.3272         estimate D2E/DX2                !
 ! D19   D(3,5,6,35)           161.5083         estimate D2E/DX2                !
 ! D20   D(7,5,6,33)           159.0133         estimate D2E/DX2                !
 ! D21   D(7,5,6,34)            40.1896         estimate D2E/DX2                !
 ! D22   D(7,5,6,35)           -79.9749         estimate D2E/DX2                !
 ! D23   D(25,5,6,33)          -79.3833         estimate D2E/DX2                !
 ! D24   D(25,5,6,34)          161.793          estimate D2E/DX2                !
 ! D25   D(25,5,6,35)           41.6285         estimate D2E/DX2                !
 ! D26   D(3,5,7,8)           -177.0344         estimate D2E/DX2                !
 ! D27   D(3,5,7,36)            60.5159         estimate D2E/DX2                !
 ! D28   D(3,5,7,37)           -54.9728         estimate D2E/DX2                !
 ! D29   D(6,5,7,8)             60.6215         estimate D2E/DX2                !
 ! D30   D(6,5,7,36)           -61.8282         estimate D2E/DX2                !
 ! D31   D(6,5,7,37)          -177.3169         estimate D2E/DX2                !
 ! D32   D(25,5,7,8)           -63.4917         estimate D2E/DX2                !
 ! D33   D(25,5,7,36)          174.0585         estimate D2E/DX2                !
 ! D34   D(25,5,7,37)           58.5699         estimate D2E/DX2                !
 ! D35   D(3,5,25,26)          -77.8094         estimate D2E/DX2                !
 ! D36   D(3,5,25,61)           63.5259         estimate D2E/DX2                !
 ! D37   D(6,5,25,26)           45.9085         estimate D2E/DX2                !
 ! D38   D(6,5,25,61)         -172.7562         estimate D2E/DX2                !
 ! D39   D(7,5,25,26)          168.3484         estimate D2E/DX2                !
 ! D40   D(7,5,25,61)          -50.3164         estimate D2E/DX2                !
 ! D41   D(5,7,8,9)            178.3449         estimate D2E/DX2                !
 ! D42   D(5,7,8,38)           -60.7593         estimate D2E/DX2                !
 ! D43   D(5,7,8,39)            57.0266         estimate D2E/DX2                !
 ! D44   D(36,7,8,9)           -58.7821         estimate D2E/DX2                !
 ! D45   D(36,7,8,38)           62.1137         estimate D2E/DX2                !
 ! D46   D(36,7,8,39)          179.8996         estimate D2E/DX2                !
 ! D47   D(37,7,8,9)            55.9705         estimate D2E/DX2                !
 ! D48   D(37,7,8,38)          176.8663         estimate D2E/DX2                !
 ! D49   D(37,7,8,39)          -65.3478         estimate D2E/DX2                !
 ! D50   D(7,8,9,10)          -179.6117         estimate D2E/DX2                !
 ! D51   D(7,8,9,40)           -59.9654         estimate D2E/DX2                !
 ! D52   D(7,8,9,41)            56.7216         estimate D2E/DX2                !
 ! D53   D(38,8,9,10)           58.9565         estimate D2E/DX2                !
 ! D54   D(38,8,9,40)          178.6027         estimate D2E/DX2                !
 ! D55   D(38,8,9,41)          -64.7102         estimate D2E/DX2                !
 ! D56   D(39,8,9,10)          -58.0722         estimate D2E/DX2                !
 ! D57   D(39,8,9,40)           61.5741         estimate D2E/DX2                !
 ! D58   D(39,8,9,41)          178.2611         estimate D2E/DX2                !
 ! D59   D(8,9,10,11)         -115.197          estimate D2E/DX2                !
 ! D60   D(8,9,10,42)           64.4483         estimate D2E/DX2                !
 ! D61   D(40,9,10,11)         124.2588         estimate D2E/DX2                !
 ! D62   D(40,9,10,42)         -56.0959         estimate D2E/DX2                !
 ! D63   D(41,9,10,11)           7.0953         estimate D2E/DX2                !
 ! D64   D(41,9,10,42)        -173.2594         estimate D2E/DX2                !
 ! D65   D(9,10,11,12)          -1.2138         estimate D2E/DX2                !
 ! D66   D(9,10,11,43)         179.695          estimate D2E/DX2                !
 ! D67   D(42,10,11,12)        179.1486         estimate D2E/DX2                !
 ! D68   D(42,10,11,43)          0.0574         estimate D2E/DX2                !
 ! D69   D(10,11,12,13)         89.7031         estimate D2E/DX2                !
 ! D70   D(10,11,12,44)       -146.3691         estimate D2E/DX2                !
 ! D71   D(10,11,12,45)        -32.2984         estimate D2E/DX2                !
 ! D72   D(43,11,12,13)        -91.1903         estimate D2E/DX2                !
 ! D73   D(43,11,12,44)         32.7375         estimate D2E/DX2                !
 ! D74   D(43,11,12,45)        146.8083         estimate D2E/DX2                !
 ! D75   D(11,12,13,14)         60.2512         estimate D2E/DX2                !
 ! D76   D(11,12,13,46)       -175.1513         estimate D2E/DX2                !
 ! D77   D(11,12,13,47)        -61.3187         estimate D2E/DX2                !
 ! D78   D(44,12,13,14)        -62.7388         estimate D2E/DX2                !
 ! D79   D(44,12,13,46)         61.8588         estimate D2E/DX2                !
 ! D80   D(44,12,13,47)        175.6914         estimate D2E/DX2                !
 ! D81   D(45,12,13,14)       -177.0159         estimate D2E/DX2                !
 ! D82   D(45,12,13,46)        -52.4184         estimate D2E/DX2                !
 ! D83   D(45,12,13,47)         61.4142         estimate D2E/DX2                !
 ! D84   D(12,13,14,15)         65.4113         estimate D2E/DX2                !
 ! D85   D(12,13,14,48)       -173.0715         estimate D2E/DX2                !
 ! D86   D(12,13,14,49)        -60.2262         estimate D2E/DX2                !
 ! D87   D(46,13,14,15)        -58.6143         estimate D2E/DX2                !
 ! D88   D(46,13,14,48)         62.9029         estimate D2E/DX2                !
 ! D89   D(46,13,14,49)        175.7482         estimate D2E/DX2                !
 ! D90   D(47,13,14,15)       -172.6353         estimate D2E/DX2                !
 ! D91   D(47,13,14,48)        -51.1181         estimate D2E/DX2                !
 ! D92   D(47,13,14,49)         61.7272         estimate D2E/DX2                !
 ! D93   D(13,14,15,16)         50.58           estimate D2E/DX2                !
 ! D94   D(13,14,15,17)        -74.5674         estimate D2E/DX2                !
 ! D95   D(13,14,15,21)        172.656          estimate D2E/DX2                !
 ! D96   D(48,14,15,16)        -69.8813         estimate D2E/DX2                !
 ! D97   D(48,14,15,17)        164.9713         estimate D2E/DX2                !
 ! D98   D(48,14,15,21)         52.1947         estimate D2E/DX2                !
 ! D99   D(49,14,15,16)        176.0307         estimate D2E/DX2                !
 ! D100  D(49,14,15,17)         50.8833         estimate D2E/DX2                !
 ! D101  D(49,14,15,21)        -61.8932         estimate D2E/DX2                !
 ! D102  D(14,15,16,50)        159.3783         estimate D2E/DX2                !
 ! D103  D(14,15,16,51)         40.6261         estimate D2E/DX2                !
 ! D104  D(14,15,16,52)        -79.5404         estimate D2E/DX2                !
 ! D105  D(17,15,16,50)        -77.8498         estimate D2E/DX2                !
 ! D106  D(17,15,16,51)        163.3981         estimate D2E/DX2                !
 ! D107  D(17,15,16,52)         43.2316         estimate D2E/DX2                !
 ! D108  D(21,15,16,50)         40.8604         estimate D2E/DX2                !
 ! D109  D(21,15,16,51)        -77.8918         estimate D2E/DX2                !
 ! D110  D(21,15,16,52)        161.9417         estimate D2E/DX2                !
 ! D111  D(14,15,17,18)        166.5002         estimate D2E/DX2                !
 ! D112  D(14,15,17,53)        -53.1602         estimate D2E/DX2                !
 ! D113  D(16,15,17,18)         43.0172         estimate D2E/DX2                !
 ! D114  D(16,15,17,53)       -176.6432         estimate D2E/DX2                !
 ! D115  D(21,15,17,18)        -79.8278         estimate D2E/DX2                !
 ! D116  D(21,15,17,53)         60.5118         estimate D2E/DX2                !
 ! D117  D(14,15,21,22)         94.6725         estimate D2E/DX2                !
 ! D118  D(14,15,21,23)        -78.9868         estimate D2E/DX2                !
 ! D119  D(16,15,21,22)       -144.429          estimate D2E/DX2                !
 ! D120  D(16,15,21,23)         41.9117         estimate D2E/DX2                !
 ! D121  D(17,15,21,22)        -20.9491         estimate D2E/DX2                !
 ! D122  D(17,15,21,23)        165.3916         estimate D2E/DX2                !
 ! D123  D(15,17,18,19)        168.3577         estimate D2E/DX2                !
 ! D124  D(15,17,18,20)        -11.3363         estimate D2E/DX2                !
 ! D125  D(53,17,18,19)         28.0686         estimate D2E/DX2                !
 ! D126  D(53,17,18,20)       -151.6254         estimate D2E/DX2                !
 ! D127  D(17,18,19,54)         20.5339         estimate D2E/DX2                !
 ! D128  D(17,18,19,55)       -100.2688         estimate D2E/DX2                !
 ! D129  D(17,18,19,56)        139.7599         estimate D2E/DX2                !
 ! D130  D(20,18,19,54)       -159.7607         estimate D2E/DX2                !
 ! D131  D(20,18,19,55)         79.4366         estimate D2E/DX2                !
 ! D132  D(20,18,19,56)        -40.5347         estimate D2E/DX2                !
 ! D133  D(15,21,23,24)       -177.6515         estimate D2E/DX2                !
 ! D134  D(15,21,23,57)        -21.5053         estimate D2E/DX2                !
 ! D135  D(22,21,23,24)          8.7135         estimate D2E/DX2                !
 ! D136  D(22,21,23,57)        164.8597         estimate D2E/DX2                !
 ! D137  D(21,23,24,58)         72.9158         estimate D2E/DX2                !
 ! D138  D(21,23,24,59)       -167.628          estimate D2E/DX2                !
 ! D139  D(21,23,24,60)        -47.1748         estimate D2E/DX2                !
 ! D140  D(57,23,24,58)        -83.5825         estimate D2E/DX2                !
 ! D141  D(57,23,24,59)         35.8737         estimate D2E/DX2                !
 ! D142  D(57,23,24,60)        156.3268         estimate D2E/DX2                !
 ! D143  D(5,25,26,27)         168.6921         estimate D2E/DX2                !
 ! D144  D(5,25,26,28)         -10.9246         estimate D2E/DX2                !
 ! D145  D(61,25,26,27)         27.2833         estimate D2E/DX2                !
 ! D146  D(61,25,26,28)       -152.3334         estimate D2E/DX2                !
 ! D147  D(25,26,27,62)       -100.7574         estimate D2E/DX2                !
 ! D148  D(25,26,27,63)        139.3461         estimate D2E/DX2                !
 ! D149  D(25,26,27,64)         20.0139         estimate D2E/DX2                !
 ! D150  D(28,26,27,62)         78.8726         estimate D2E/DX2                !
 ! D151  D(28,26,27,63)        -41.0239         estimate D2E/DX2                !
 ! D152  D(28,26,27,64)       -160.3562         estimate D2E/DX2                !
 --------------------------------------------------------------------------------
 Trust Radius=3.00D-01 FncErr=1.00D-07 GrdErr=1.00D-07
 Number of steps in this run= 339 maximum allowed number of steps= 384.
 GradGradGradGradGradGradGradGradGradGradGradGradGradGradGradGradGradGrad

 Stoichiometry    C20H36N4O4
 Framework group  C1[X(C20H36N4O4)]
 Deg. of freedom   186
 Full point group                 C1      NOp   1
 Largest Abelian subgroup         C1      NOp   1
 Largest concise Abelian subgroup C1      NOp   1
                         Standard orientation:                         
 ---------------------------------------------------------------------
 Center     Atomic      Atomic             Coordinates (Angstroms)
 Number     Number       Type             X           Y           Z
 ---------------------------------------------------------------------
      1          6           0        6.557576    0.223439    3.231093
      2          7           0        5.454042    0.343951    2.310773
      3          6           0        5.592894   -0.076330    1.001341
      4          8           0        6.582198   -0.707445    0.621480
      5          6           0        4.357401    0.150507    0.067608
      6          6           0        3.696355    1.522184    0.282045
      7          6           0        3.349149   -0.985312    0.393834
      8          6           0        2.084693   -0.981713   -0.476883
      9          6           0        1.166798   -2.154327   -0.117964
     10          6           0       -0.065902   -2.155163   -0.977196
     11          6           0       -1.334746   -1.974606   -0.577927
     12          6           0       -1.820442   -1.754270    0.827244
     13          6           0       -1.865896   -0.278933    1.231937
     14          6           0       -2.775162    0.641491    0.401316
     15          6           0       -4.307486    0.377873    0.466701
     16          6           0       -4.774795    0.288084    1.928362
     17          7           0       -4.625899   -0.830605   -0.323684
     18          6           0       -5.837395   -1.486968   -0.253581
     19          6           0       -6.025377   -2.511363   -1.341528
     20          8           0       -6.700357   -1.279751    0.590884
     21          6           0       -4.991616    1.558265   -0.304409
     22          8           0       -5.293250    1.459589   -1.496809
     23          7           0       -5.112889    2.751029    0.381043
     24          6           0       -5.774526    3.876639   -0.231010
     25          7           0        4.853483   -0.040059   -1.313337
     26          6           0        5.579013    0.921206   -1.988711
     27          6           0        6.204360    0.414632   -3.262242
     28          8           0        5.725991    2.077700   -1.614208
     29          1           0        6.186989    0.402769    4.242609
     30          1           0        6.996328   -0.775614    3.166722
     31          1           0        7.313013    0.970520    2.974556
     32          1           0        4.760599    1.049730    2.517875
     33          1           0        4.437571    2.316011    0.424710
     34          1           0        3.065708    1.526494    1.178479
     35          1           0        3.063984    1.800960   -0.567423
     36          1           0        3.051834   -0.920997    1.448984
     37          1           0        3.849932   -1.956894    0.282447
     38          1           0        1.537378   -0.042704   -0.339617
     39          1           0        2.361109   -1.043679   -1.536900
     40          1           0        1.696592   -3.102324   -0.275559
     41          1           0        0.918335   -2.107002    0.945833
     42          1           0        0.110796   -2.316626   -2.041274
     43          1           0       -2.109443   -2.001570   -1.341909
     44          1           0       -2.806303   -2.218579    0.941445
     45          1           0       -1.179261   -2.293111    1.534700
     46          1           0       -2.145286   -0.216128    2.290753
     47          1           0       -0.846244    0.125181    1.176768
     48          1           0       -2.583330    1.666085    0.751503
     49          1           0       -2.442139    0.632847   -0.645914
     50          1           0       -5.850723    0.465325    2.027344
     51          1           0       -4.282546    1.042767    2.552034
     52          1           0       -4.553485   -0.694295    2.360884
     53          1           0       -4.264286   -0.780294   -1.270650
     54          1           0       -5.066649   -2.818222   -1.771112
     55          1           0       -6.654500   -2.088059   -2.127978
     56          1           0       -6.507209   -3.398523   -0.919885
     57          1           0       -5.078909    2.732658    1.391163
     58          1           0       -6.849839    3.682398   -0.255050
     59          1           0       -5.572114    4.766708    0.369361
     60          1           0       -5.407466    4.023547   -1.250471
     61          1           0        5.183683   -0.981734   -1.491630
     62          1           0        7.260975    0.202140   -3.081648
     63          1           0        6.108379    1.180483   -4.037477
     64          1           0        5.709328   -0.493237   -3.618175
 ---------------------------------------------------------------------
 Rotational constants (GHZ):      0.2895550      0.0511655      0.0500533
 Standard basis: 6-31G(d) (6D, 7F)
 There are   492 symmetry adapted basis functions of A   symmetry.
 Integral buffers will be    131072 words long.
 Raffenetti 1 integral format.
 Two-electron integral symmetry is turned on.
   492 basis functions,   928 primitive gaussians,   492 cartesian basis functions
   108 alpha electrons      108 beta electrons
       nuclear repulsion energy      2650.5870248459 Hartrees.
 NAtoms=   64 NActive=   64 NUniq=   64 SFac= 7.50D-01 NAtFMM=   80 NAOKFM=F Big=T
 One-electron integrals computed using PRISM.
 NBasis=   492 RedAO= T  NBF=   492
 NBsUse=   492 1.00D-06 NBFU=   492
 Harris functional with IExCor=  205 diagonalized for initial guess.
 ExpMin= 1.61D-01 ExpMax= 5.48D+03 ExpMxC= 8.25D+02 IAcc=1 IRadAn=         1 AccDes= 0.00D+00
 HarFok:  IExCor=  205 AccDes= 0.00D+00 IRadAn=         1 IDoV= 1
 ScaDFX=  1.000000  1.000000  1.000000  1.000000
 FoFCou: FMM=F IPFlag=           0 FMFlag=      100000 FMFlg1=           1
         NFxFlg=           0 DoJE=T BraDBF=F KetDBF=T FulRan=T
         Omega=  0.000000  0.000000  1.000000  0.000000  0.000000 ICntrl=     500 IOpCl=  0
         NMat0=    1 NMatS0=    1 NMatT0=    0 NMatD0=    1 NMtDS0=    0 NMtDT0=    0
         I1Cent=           4 NGrid=           0.
 Petite list used in FoFCou.
 Initial guess orbital symmetries:
       Occupied  (A) (A) (A) (A) (A) (A) (A) (A) (A) (A) (A) (A)
                 (A) (A) (A) (A) (A) (A) (A) (A) (A) (A) (A) (A)
                 (A) (A) (A) (A) (A) (A) (A) (A) (A) (A) (A) (A)
                 (A) (A) (A) (A) (A) (A) (A) (A) (A) (A) (A) (A)
                 (A) (A) (A) (A) (A) (A) (A) (A) (A) (A) (A) (A)
                 (A) (A) (A) (A) (A) (A) (A) (A) (A) (A) (A) (A)
                 (A) (A) (A) (A) (A) (A) (A) (A) (A) (A) (A) (A)
                 (A) (A) (A) (A) (A) (A) (A) (A) (A) (A) (A) (A)
                 (A) (A) (A) (A) (A) (A) (A) (A) (A) (A) (A) (A)
       Virtual   (A) (A) (A) (A) (A) (A) (A) (A) (A) (A) (A) (A)
                 (A) (A) (A) (A) (A) (A) (A) (A) (A) (A) (A) (A)
                 (A) (A) (A) (A) (A) (A) (A) (A) (A) (A) (A) (A)
                 (A) (A) (A) (A) (A) (A) (A) (A) (A) (A) (A) (A)
                 (A) (A) (A) (A) (A) (A) (A) (A) (A) (A) (A) (A)
                 (A) (A) (A) (A) (A) (A) (A) (A) (A) (A) (A) (A)
                 (A) (A) (A) (A) (A) (A) (A) (A) (A) (A) (A) (A)
                 (A) (A) (A) (A) (A) (A) (A) (A) (A) (A) (A) (A)
                 (A) (A) (A) (A) (A) (A) (A) (A) (A) (A) (A) (A)
                 (A) (A) (A) (A) (A) (A) (A) (A) (A) (A) (A) (A)
                 (A) (A) (A) (A) (A) (A) (A) (A) (A) (A) (A) (A)
                 (A) (A) (A) (A) (A) (A) (A) (A) (A) (A) (A) (A)
                 (A) (A) (A) (A) (A) (A) (A) (A) (A) (A) (A) (A)
                 (A) (A) (A) (A) (A) (A) (A) (A) (A) (A) (A) (A)
                 (A) (A) (A) (A) (A) (A) (A) (A) (A) (A) (A) (A)
                 (A) (A) (A) (A) (A) (A) (A) (A) (A) (A) (A) (A)
                 (A) (A) (A) (A) (A) (A) (A) (A) (A) (A) (A) (A)
                 (A) (A) (A) (A) (A) (A) (A) (A) (A) (A) (A) (A)
                 (A) (A) (A) (A) (A) (A) (A) (A) (A) (A) (A) (A)
                 (A) (A) (A) (A) (A) (A) (A) (A) (A) (A) (A) (A)
                 (A) (A) (A) (A) (A) (A) (A) (A) (A) (A) (A) (A)
                 (A) (A) (A) (A) (A) (A) (A) (A) (A) (A) (A) (A)
                 (A) (A) (A) (A) (A) (A) (A) (A) (A) (A) (A) (A)
                 (A) (A) (A) (A) (A) (A) (A) (A) (A) (A) (A) (A)
                 (A) (A) (A) (A) (A) (A) (A) (A) (A) (A) (A) (A)
                 (A) (A) (A) (A) (A) (A) (A) (A) (A) (A) (A) (A)
                 (A) (A) (A) (A) (A) (A) (A) (A) (A) (A) (A) (A)
                 (A) (A) (A) (A) (A) (A) (A) (A) (A) (A) (A) (A)
                 (A) (A) (A) (A) (A) (A) (A) (A) (A) (A) (A) (A)
                 (A) (A) (A) (A) (A) (A) (A) (A) (A) (A) (A) (A)
                 (A) (A) (A) (A) (A) (A) (A) (A) (A) (A) (A) (A)
                 (A) (A) (A) (A) (A) (A) (A) (A) (A) (A) (A) (A)
 The electronic state of the initial guess is 1-A.
 Requested convergence on RMS density matrix=1.00D-08 within 128 cycles.
 Requested convergence on MAX density matrix=1.00D-06.
 Requested convergence on             energy=1.00D-06.
 No special actions if energy rises.
 Integral accuracy reduced to 1.0D-05 until final iterations.
 Initial convergence to 1.0D-05 achieved.  Increase integral accuracy.
 SCF Done:  E(RHF) =  -1295.59892273     A.U. after   14 cycles
             Convg  =    0.9791D-08             -V/T =  2.0024

 **********************************************************************

            Population analysis using the SCF density.

 **********************************************************************

 Orbital symmetries:
 BldTbl:  Degeneracy threshold= 1.00D-02
       Occupied  (A) (A) (A) (A) (A) (A) (A) (A) (A) (A) (A) (A)
                 (A) (A) (A) (A) (A) (A) (A) (A) (A) (A) (A) (A)
                 (A) (A) (A) (A) (A) (A) (A) (A) (A) (A) (A) (A)
                 (A) (A) (A) (A) (A) (A) (A) (A) (A) (A) (A) (A)
                 (A) (A) (A) (A) (A) (A) (A) (A) (A) (A) (A) (A)
                 (A) (A) (A) (A) (A) (A) (A) (A) (A) (A) (A) (A)
                 (A) (A) (A) (A) (A) (A) (A) (A) (A) (A) (A) (A)
                 (A) (A) (A) (A) (A) (A) (A) (A) (A) (A) (A) (A)
                 (A) (A) (A) (A) (A) (A) (A) (A) (A) (A) (A) (A)
       Virtual   (A) (A) (A) (A) (A) (A) (A) (A) (A) (A) (A) (A)
                 (A) (A) (A) (A) (A) (A) (A) (A) (A) (A) (A) (A)
                 (A) (A) (A) (A) (A) (A) (A) (A) (A) (A) (A) (A)
                 (A) (A) (A) (A) (A) (A) (A) (A) (A) (A) (A) (A)
                 (A) (A) (A) (A) (A) (A) (A) (A) (A) (A) (A) (A)
                 (A) (A) (A) (A) (A) (A) (A) (A) (A) (A) (A) (A)
                 (A) (A) (A) (A) (A) (A) (A) (A) (A) (A) (A) (A)
                 (A) (A) (A) (A) (A) (A) (A) (A) (A) (A) (A) (A)
                 (A) (A) (A) (A) (A) (A) (A) (A) (A) (A) (A) (A)
                 (A) (A) (A) (A) (A) (A) (A) (A) (A) (A) (A) (A)
                 (A) (A) (A) (A) (A) (A) (A) (A) (A) (A) (A) (A)
                 (A) (A) (A) (A) (A) (A) (A) (A) (A) (A) (A) (A)
                 (A) (A) (A) (A) (A) (A) (A) (A) (A) (A) (A) (A)
                 (A) (A) (A) (A) (A) (A) (A) (A) (A) (A) (A) (A)
                 (A) (A) (A) (A) (A) (A) (A) (A) (A) (A) (A) (A)
                 (A) (A) (A) (A) (A) (A) (A) (A) (A) (A) (A) (A)
                 (A) (A) (A) (A) (A) (A) (A) (A) (A) (A) (A) (A)
                 (A) (A) (A) (A) (A) (A) (A) (A) (A) (A) (A) (A)
                 (A) (A) (A) (A) (A) (A) (A) (A) (A) (A) (A) (A)
                 (A) (A) (A) (A) (A) (A) (A) (A) (A) (A) (A) (A)
                 (A) (A) (A) (A) (A) (A) (A) (A) (A) (A) (A) (A)
                 (A) (A) (A) (A) (A) (A) (A) (A) (A) (A) (A) (A)
                 (A) (A) (A) (A) (A) (A) (A) (A) (A) (A) (A) (A)
                 (A) (A) (A) (A) (A) (A) (A) (A) (A) (A) (A) (A)
                 (A) (A) (A) (A) (A) (A) (A) (A) (A) (A) (A) (A)
                 (A) (A) (A) (A) (A) (A) (A) (A) (A) (A) (A) (A)
                 (A) (A) (A) (A) (A) (A) (A) (A) (A) (A) (A) (A)
                 (A) (A) (A) (A) (A) (A) (A) (A) (A) (A) (A) (A)
                 (A) (A) (A) (A) (A) (A) (A) (A) (A) (A) (A) (A)
                 (A) (A) (A) (A) (A) (A) (A) (A) (A) (A) (A) (A)
                 (A) (A) (A) (A) (A) (A) (A) (A) (A) (A) (A) (A)
                 (A) (A) (A) (A) (A) (A) (A) (A) (A) (A) (A) (A)
 The electronic state is 1-A.
 Alpha  occ. eigenvalues --  -20.53336 -20.53197 -20.52519 -20.52438 -15.59222
 Alpha  occ. eigenvalues --  -15.59142 -15.58524 -15.58498 -11.35621 -11.35519
 Alpha  occ. eigenvalues --  -11.35270 -11.35195 -11.30109 -11.29977 -11.26103
 Alpha  occ. eigenvalues --  -11.26051 -11.24284 -11.24261 -11.23500 -11.23298
 Alpha  occ. eigenvalues --  -11.23248 -11.23225 -11.23193 -11.23185 -11.23157
 Alpha  occ. eigenvalues --  -11.23053 -11.22966 -11.22626  -1.38129  -1.38012
 Alpha  occ. eigenvalues --   -1.37034  -1.36951  -1.23192  -1.23076  -1.22835
 Alpha  occ. eigenvalues --   -1.22721  -1.11228  -1.09638  -1.07535  -1.04538
 Alpha  occ. eigenvalues --   -1.00913  -0.99081  -0.98742  -0.95571  -0.94896
 Alpha  occ. eigenvalues --   -0.94820  -0.92475  -0.88140  -0.86157  -0.81286
 Alpha  occ. eigenvalues --   -0.80392  -0.79269  -0.79098  -0.75772  -0.75678
 Alpha  occ. eigenvalues --   -0.72418  -0.72051  -0.71616  -0.67939  -0.67383
 Alpha  occ. eigenvalues --   -0.67068  -0.65659  -0.65164  -0.63663  -0.63484
 Alpha  occ. eigenvalues --   -0.62761  -0.62247  -0.61959  -0.61747  -0.61238
 Alpha  occ. eigenvalues --   -0.60971  -0.59847  -0.59520  -0.59018  -0.58189
 Alpha  occ. eigenvalues --   -0.57925  -0.57243  -0.56495  -0.56126  -0.55799
 Alpha  occ. eigenvalues --   -0.55536  -0.55129  -0.55043  -0.54530  -0.53533
 Alpha  occ. eigenvalues --   -0.53288  -0.52976  -0.52889  -0.51948  -0.51730
 Alpha  occ. eigenvalues --   -0.50633  -0.50244  -0.49906  -0.49310  -0.49197
 Alpha  occ. eigenvalues --   -0.48191  -0.47795  -0.47214  -0.45558  -0.42468
 Alpha  occ. eigenvalues --   -0.42237  -0.41417  -0.41362  -0.39269  -0.39243
 Alpha  occ. eigenvalues --   -0.38723  -0.38574  -0.34582
 Alpha virt. eigenvalues --    0.16785   0.17971   0.18817   0.19152   0.19354
 Alpha virt. eigenvalues --    0.20027   0.20202   0.21524   0.22288   0.22856
 Alpha virt. eigenvalues --    0.24779   0.25340   0.25596   0.26195   0.26512
 Alpha virt. eigenvalues --    0.27413   0.27801   0.28117   0.28478   0.28999
 Alpha virt. eigenvalues --    0.29198   0.30079   0.30453   0.30688   0.31017
 Alpha virt. eigenvalues --    0.31225   0.31494   0.32056   0.32345   0.32613
 Alpha virt. eigenvalues --    0.32956   0.33233   0.33506   0.33727   0.33945
 Alpha virt. eigenvalues --    0.35227   0.35654   0.36034   0.36486   0.36892
 Alpha virt. eigenvalues --    0.37377   0.37852   0.38030   0.38444   0.39458
 Alpha virt. eigenvalues --    0.39991   0.40422   0.40554   0.41250   0.41476
 Alpha virt. eigenvalues --    0.43139   0.43835   0.44911   0.45661   0.46877
 Alpha virt. eigenvalues --    0.47431   0.47619   0.47946   0.50198   0.50819
 Alpha virt. eigenvalues --    0.54665   0.55936   0.56020   0.58574   0.60017
 Alpha virt. eigenvalues --    0.60715   0.61145   0.62480   0.68518   0.70120
 Alpha virt. eigenvalues --    0.70178   0.70830   0.71527   0.72474   0.73255
 Alpha virt. eigenvalues --    0.74082   0.74516   0.75250   0.75546   0.76128
 Alpha virt. eigenvalues --    0.76198   0.76511   0.76987   0.77387   0.77784
 Alpha virt. eigenvalues --    0.79035   0.80414   0.80603   0.81050   0.81576
 Alpha virt. eigenvalues --    0.82136   0.83225   0.83748   0.85488   0.85773
 Alpha virt. eigenvalues --    0.86399   0.87463   0.88466   0.89027   0.89631
 Alpha virt. eigenvalues --    0.90297   0.91064   0.92265   0.92518   0.92781
 Alpha virt. eigenvalues --    0.94371   0.94629   0.95029   0.96054   0.96757
 Alpha virt. eigenvalues --    0.97793   0.98104   0.98487   0.99402   0.99476
 Alpha virt. eigenvalues --    0.99799   1.00418   1.01930   1.03044   1.03608
 Alpha virt. eigenvalues --    1.04366   1.04834   1.06018   1.06274   1.07256
 Alpha virt. eigenvalues --    1.07636   1.08579   1.09179   1.09579   1.09729
 Alpha virt. eigenvalues --    1.10718   1.11359   1.12232   1.12469   1.12880
 Alpha virt. eigenvalues --    1.13034   1.13332   1.13663   1.13788   1.14027
 Alpha virt. eigenvalues --    1.14848   1.15316   1.15758   1.16115   1.16166
 Alpha virt. eigenvalues --    1.16942   1.17643   1.18229   1.18409   1.18516
 Alpha virt. eigenvalues --    1.18996   1.19198   1.19497   1.19848   1.20371
 Alpha virt. eigenvalues --    1.20806   1.20941   1.21397   1.21433   1.21793
 Alpha virt. eigenvalues --    1.22162   1.22502   1.23581   1.24085   1.24503
 Alpha virt. eigenvalues --    1.25106   1.25343   1.25634   1.26939   1.27369
 Alpha virt. eigenvalues --    1.28194   1.28398   1.29280   1.30676   1.31175
 Alpha virt. eigenvalues --    1.32073   1.33107   1.33959   1.35445   1.35485
 Alpha virt. eigenvalues --    1.36631   1.37265   1.39172   1.40084   1.41749
 Alpha virt. eigenvalues --    1.41967   1.43379   1.43812   1.45951   1.47535
 Alpha virt. eigenvalues --    1.48090   1.49351   1.50711   1.51050   1.52725
 Alpha virt. eigenvalues --    1.53282   1.57108   1.57417   1.60145   1.60508
 Alpha virt. eigenvalues --    1.62346   1.63432   1.63948   1.67154   1.68327
 Alpha virt. eigenvalues --    1.70694   1.71504   1.72488   1.72797   1.73058
 Alpha virt. eigenvalues --    1.74430   1.75452   1.78070   1.78409   1.78534
 Alpha virt. eigenvalues --    1.80335   1.81651   1.82350   1.83738   1.84817
 Alpha virt. eigenvalues --    1.86968   1.88685   1.90945   1.92126   1.94708
 Alpha virt. eigenvalues --    1.95980   1.97691   1.98330   1.99237   2.00370
 Alpha virt. eigenvalues --    2.01824   2.03202   2.03648   2.04525   2.06370
 Alpha virt. eigenvalues --    2.06797   2.08250   2.09004   2.09418   2.09832
 Alpha virt. eigenvalues --    2.10552   2.11997   2.13704   2.14560   2.15336
 Alpha virt. eigenvalues --    2.15433   2.15969   2.16784   2.17165   2.17852
 Alpha virt. eigenvalues --    2.17922   2.19463   2.19757   2.20093   2.21047
 Alpha virt. eigenvalues --    2.21124   2.23293   2.24847   2.25045   2.26210
 Alpha virt. eigenvalues --    2.26674   2.27243   2.27710   2.28610   2.29529
 Alpha virt. eigenvalues --    2.30372   2.31314   2.32181   2.32414   2.33018
 Alpha virt. eigenvalues --    2.33455   2.35106   2.35514   2.36666   2.37161
 Alpha virt. eigenvalues --    2.38170   2.38969   2.39799   2.41159   2.42328
 Alpha virt. eigenvalues --    2.43609   2.45602   2.45896   2.46416   2.48593
 Alpha virt. eigenvalues --    2.50913   2.51768   2.52145   2.53346   2.53915
 Alpha virt. eigenvalues --    2.54788   2.56522   2.57508   2.57669   2.58955
 Alpha virt. eigenvalues --    2.60460   2.60779   2.61225   2.61599   2.62085
 Alpha virt. eigenvalues --    2.64597   2.65652   2.66684   2.67053   2.68078
 Alpha virt. eigenvalues --    2.70296   2.70780   2.71363   2.72069   2.73210
 Alpha virt. eigenvalues --    2.74579   2.75619   2.76986   2.77154   2.78972
 Alpha virt. eigenvalues --    2.79937   2.80557   2.81013   2.83923   2.84888
 Alpha virt. eigenvalues --    2.85788   2.87894   2.88937   2.91796   2.93219
 Alpha virt. eigenvalues --    2.93611   2.95017   2.95547   2.97682   2.99097
 Alpha virt. eigenvalues --    2.99271   3.03160   3.03764   3.04508   3.05479
 Alpha virt. eigenvalues --    3.06205   3.10342   3.11196   3.11917   3.13727
 Alpha virt. eigenvalues --    3.15330   3.19808   3.21213   3.25378   3.25793
 Alpha virt. eigenvalues --    3.29289   3.29379   3.37834   3.37921   3.38617
 Alpha virt. eigenvalues --    3.38744   3.40888   3.47403   3.47535   3.53677
 Alpha virt. eigenvalues --    3.54031   4.33941   4.34825   4.46577   4.46777
 Alpha virt. eigenvalues --    4.49681   4.50326   4.54646   4.56469   4.58875
 Alpha virt. eigenvalues --    4.62402   4.63041   4.63598   4.65991   4.69336
 Alpha virt. eigenvalues --    4.70864   4.71822   4.72943   4.81518   4.83361
 Alpha virt. eigenvalues --    4.85027   4.85440   4.91609   4.93064   4.93983
 Alpha virt. eigenvalues --    4.97072   5.01996   5.17923   5.18474
          Condensed to atoms (all electrons):
 Mulliken atomic charges:
              1
     1  C   -0.277333
     2  N   -0.795405
     3  C    0.794273
     4  O   -0.644876
     5  C    0.104315
     6  C   -0.515210
     7  C   -0.321334
     8  C   -0.310464
     9  C   -0.348667
    10  C   -0.162276
    11  C   -0.184034
    12  C   -0.346041
    13  C   -0.306665
    14  C   -0.323003
    15  C    0.106071
    16  C   -0.516348
    17  N   -0.794381
    18  C    0.770023
    19  C   -0.588269
    20  O   -0.620851
    21  C    0.791527
    22  O   -0.644975
    23  N   -0.795108
    24  C   -0.277167
    25  N   -0.789749
    26  C    0.772352
    27  C   -0.586832
    28  O   -0.621750
    29  H    0.166595
    30  H    0.207176
    31  H    0.177732
    32  H    0.391512
    33  H    0.221466
    34  H    0.144363
    35  H    0.200643
    36  H    0.176440
    37  H    0.175396
    38  H    0.171578
    39  H    0.177738
    40  H    0.168948
    41  H    0.168499
    42  H    0.177282
    43  H    0.166184
    44  H    0.188731
    45  H    0.169252
    46  H    0.163109
    47  H    0.164051
    48  H    0.179354
    49  H    0.182966
    50  H    0.222619
    51  H    0.147109
    52  H    0.198815
    53  H    0.396987
    54  H    0.173759
    55  H    0.214125
    56  H    0.208437
    57  H    0.392394
    58  H    0.177577
    59  H    0.167273
    60  H    0.207816
    61  H    0.391711
    62  H    0.213586
    63  H    0.208171
    64  H    0.172788
 Sum of Mulliken atomic charges =   0.00000
 Mulliken charges with hydrogens summed into heavy atoms:
              1
     1  C    0.274169
     2  N   -0.403893
     3  C    0.794273
     4  O   -0.644876
     5  C    0.104315
     6  C    0.051262
     7  C    0.030501
     8  C    0.038851
     9  C   -0.011220
    10  C    0.015006
    11  C   -0.017851
    12  C    0.011941
    13  C    0.020496
    14  C    0.039317
    15  C    0.106071
    16  C    0.052195
    17  N   -0.397393
    18  C    0.770023
    19  C    0.008051
    20  O   -0.620851
    21  C    0.791527
    22  O   -0.644975
    23  N   -0.402714
    24  C    0.275499
    25  N   -0.398038
    26  C    0.772352
    27  C    0.007712
    28  O   -0.621750
 Sum of Mulliken charges with hydrogens summed into heavy atoms =   0.00000
 DipInt: DoE/N= T F RetVal/Mat= T F Init=T NMatP=  1 IDeriv=0 Min/MaxMlt=  0  4
 Entering OneElI...
 OneElI was handed    32936476 working-precision words.
 Multipole integrals L=0 to 4 MinM= 0 MaxM= 0.
 Requested accuracy = 0.1000D-12
 PrsmSu:  NPrtUS=   1 ThrOK=F IAlg=1
 PRISM was handed    32085392 working-precision words and 10065 shell-pairs
 IPart=  0 NShTot=       10065 NBatch=          72 AvBLen=       139.8
 Electronic moments (au):
       -216.00000000          0.06030120         -0.01786272          1.01885167
     -17784.32816042      -2134.53874584      -1729.41712448        -12.63274363
          1.39749045         14.17288460      -8739.45496864      -2694.93587322
       -244.69912924       9929.87548831      -9680.97904129        752.29443542
      -9461.49701813       -621.82479441       1348.45072946       2040.75620160
   -2068405.94867247     -61425.14915379     -45864.15552051     -25425.67175721
     -33868.24498803      32311.71348860       -973.79909615        456.70836465
        770.55806046    -180316.25246667    -192783.63416701      -9063.57381129
      10005.09615161      -3754.64913876     -11612.95715647
 Electronic spatial extent (au):  <R**2>=          21648.2840
 DipInt: DoE/N= F T RetVal/Mat= T F Init=T NMatP=  1 IDeriv=0 Min/MaxMlt=  0  4
 Nuclear    moments (au):
        216.00000000          0.00000000          0.00000000          0.00000000
      17613.39458390       2008.15917506       1611.48062474          0.00000000
          0.00000000          0.00000000       8789.14616546       2733.98457184
        257.50801830     -10064.13003729       9722.37929873       -723.02917971
       9572.74719211        624.29686808      -1324.55369051      -2054.39467171
    1996408.05578504      54154.21678664      40197.87089011      23712.39250121
      34462.49182965     -33064.68687267       1104.38856632       -450.43051580
       -689.61434585     168978.97790420     182690.87469404       6831.61044786
      -8417.52532227       3929.73194761      11689.08952433
 Total      moments (au):
          0.00000000          0.06030120         -0.01786272          1.01885167
       -170.93357653       -126.37957077       -117.93649974        -12.63274363
          1.39749045         14.17288460         49.69119682         39.04869861
         12.80888906       -134.25454897         41.40025743         29.26525570
        111.25017398          2.47207367         23.89703895        -13.63847011
     -71997.89288743      -7270.93236715      -5666.28463040      -1713.27925600
        594.24684163       -752.97338407        130.58947017          6.27784886
         80.94371461     -11337.27456247     -10092.75947297      -2231.96336343
       1587.57082934        175.08280884         76.13236786
 Traceless Quadrup. (au):
        -32.51702751         12.03697824         20.48004927        -12.63274363
          1.39749045         14.17288460
 Charge=              0.0000 electrons
 Dipole moment (field-independent basis, Debye):
    X=              0.1533    Y=             -0.0454    Z=              2.5897  Tot=              2.5946
 Quadrupole moment (field-independent basis, Debye-Ang):
   XX=           -229.9115   YY=           -169.9848   ZZ=           -158.6286
   XY=            -16.9915   XZ=              1.8797   YZ=             19.0630
 Traceless Quadrupole moment (field-independent basis, Debye-Ang):
   XX=            -43.7365   YY=             16.1901   ZZ=             27.5464
   XY=            -16.9915   XZ=              1.8797   YZ=             19.0630
 Octapole moment (field-independent basis, Debye-Ang**2):
  XXX=             35.3683  YYY=             27.7934  ZZZ=              9.1169  XYY=            -95.5572
  XXY=             29.4671  XXZ=             20.8299  XZZ=             79.1836  YZZ=              1.7595
  YYZ=             17.0090  XYZ=             -9.7073
 Hexadecapole moment (field-independent basis, Debye-Ang**3):
 XXXX=         -27117.8571 YYYY=          -2738.5816 ZZZZ=          -2134.1944 XXXY=           -645.3031
 XXXZ=            223.8218 YYYX=           -283.6059 YYYZ=             49.1863 ZZZX=              2.3645
 ZZZY=             30.4873 XXYY=          -4270.1610 XXZZ=          -3801.4169 YYZZ=           -840.6644
 XXYZ=            597.9553 YYXZ=             65.9446 ZZXY=             28.6751
 N-N= 2.650587024846D+03 E-N=-8.331349081988D+03  KE= 1.292536204809D+03
 Entering OneElI...
 OneElI was handed    32450256 working-precision words.
 Calculate electrostatic properties
    NBasis =   492  MinDer = 0  MaxDer = 0
    NGrid  =    64  NMatD  =   1
 Requested accuracy = 0.1000D-12
 PrsmSu:  NPrtUS=   1 ThrOK=F IAlg=1
 PRISM was handed    31698328 working-precision words and  8492 shell-pairs
 IPart=  0 NShTot=      543488 NBatch=        8492 AvBLen=        64.0
 --------------------------------------------------------
       Center         ----      EFG at Nuclei      ----
                      3XX-RR        3YY-RR        3ZZ-RR
 --------------------------------------------------------
     1   Atom       -0.094538      0.158051     -0.063513
     2   Atom       -0.062152      0.429975     -0.367823
     3   Atom        0.212477     -0.336879      0.124402
     4   Atom       -0.459550     -0.756029      1.215578
     5   Atom        0.060999      0.162716     -0.223715
     6   Atom        0.026080     -0.034206      0.008126
     7   Atom       -0.006288     -0.024448      0.030736
     8   Atom       -0.019460     -0.000008      0.019469
     9   Atom        0.001827     -0.006627      0.004800
    10   Atom        0.203058     -0.292295      0.089237
    11   Atom        0.191850     -0.284947      0.093098
    12   Atom        0.047666     -0.018887     -0.028779
    13   Atom       -0.000960     -0.009085      0.010044
    14   Atom       -0.076173      0.031452      0.044721
    15   Atom        0.121571     -0.180226      0.058655
    16   Atom        0.077297      0.018195     -0.095492
    17   Atom        0.092685      0.142342     -0.235026
    18   Atom        0.035136     -0.099977      0.064841
    19   Atom        0.023874     -0.016508     -0.007365
    20   Atom       -0.172719      0.548797     -0.376078
    21   Atom       -0.426421      0.151049      0.275372
    22   Atom       -0.493367      1.433007     -0.939640
    23   Atom        0.839298     -0.382347     -0.456951
    24   Atom        0.052072     -0.144537      0.092465
    25   Atom        0.601922     -0.448684     -0.153238
    26   Atom       -0.362329      0.250453      0.111876
    27   Atom        0.017872      0.019534     -0.037407
    28   Atom       -0.139149     -0.804507      0.943657
    29   Atom        0.090018      0.146550     -0.236568
    30   Atom        0.071463     -0.217965      0.146502
    31   Atom       -0.068981     -0.054430      0.123412
    32   Atom       -0.076714     -0.066489      0.143202
    33   Atom       -0.054512     -0.088068      0.142580
    34   Atom        0.004993      0.145010     -0.150002
    35   Atom        0.001108      0.116724     -0.117832
    36   Atom        0.109601      0.141808     -0.251409
    37   Atom        0.048664     -0.191620      0.142957
    38   Atom        0.033498     -0.176636      0.143137
    39   Atom        0.115541      0.144421     -0.259962
    40   Atom        0.038940     -0.177285      0.138345
    41   Atom        0.120286      0.151303     -0.271589
    42   Atom        0.127456      0.152893     -0.280349
    43   Atom       -0.084858      0.164071     -0.079213
    44   Atom       -0.204405      0.067561      0.136843
    45   Atom       -0.005825      0.043916     -0.038091
    46   Atom        0.118586      0.140966     -0.259553
    47   Atom       -0.229722      0.080760      0.148961
    48   Atom        0.121594     -0.224591      0.102997
    49   Atom        0.098632      0.147763     -0.246396
    50   Atom       -0.269871      0.136708      0.133164
    51   Atom        0.060362     -0.065539      0.005177
    52   Atom        0.133339     -0.205583      0.072244
    53   Atom        0.114942      0.185847     -0.300789
    54   Atom       -0.193188      0.111170      0.082018
    55   Atom        0.004717      0.080203     -0.084920
    56   Atom        0.065448     -0.145496      0.080048
    57   Atom        0.229521      0.164012     -0.393533
    58   Atom       -0.282141      0.128994      0.153146
    59   Atom        0.139457     -0.152382      0.012924
    60   Atom        0.096810      0.133908     -0.230718
    61   Atom        0.155704     -0.312276      0.156572
    62   Atom       -0.270071      0.137078      0.132993
    63   Atom        0.147050     -0.068171     -0.078880
    64   Atom        0.061918     -0.158125      0.096208
 --------------------------------------------------------
                        XY            XZ            YZ
 --------------------------------------------------------
     1   Atom        0.011510     -0.202659      0.021547
     2   Atom        0.622683     -0.265287     -0.378392
     3   Atom       -0.356656      0.145658      0.169417
     4   Atom        0.183863      0.960973      0.152704
     5   Atom        0.016994      0.053440     -0.024170
     6   Atom        0.079421      0.030858     -0.023518
     7   Atom       -0.049153      0.015776      0.024557
     8   Atom       -0.020684     -0.030614      0.009433
     9   Atom       -0.008598     -0.017294      0.011713
    10   Atom       -0.048848     -0.035664      0.056734
    11   Atom       -0.057155     -0.030679      0.059468
    12   Atom        0.011149      0.016242     -0.004368
    13   Atom        0.012684     -0.029108      0.004927
    14   Atom       -0.020738      0.003147      0.009333
    15   Atom       -0.027456     -0.064266     -0.115784
    16   Atom       -0.012703      0.024649     -0.013765
    17   Atom       -0.644813      0.336154     -0.440852
    18   Atom        0.205227     -0.256813      0.388588
    19   Atom        0.007296     -0.001157     -0.046129
    20   Atom        1.066625      0.621129      0.723541
    21   Atom       -0.254147      0.242111     -0.022641
    22   Atom       -0.717925     -0.050988     -0.042816
    23   Atom        0.439649     -0.191488     -0.067540
    24   Atom        0.148977     -0.086922      0.124008
    25   Atom        0.004762      0.694644      0.006248
    26   Atom        0.114741     -0.339493      0.186516
    27   Atom        0.005016      0.018519     -0.034658
    28   Atom        0.160380     -1.121064     -0.447126
    29   Atom        0.029889      0.133029     -0.068069
    30   Atom        0.161399     -0.002686     -0.020940
    31   Atom       -0.210780      0.060592      0.072946
    32   Atom        0.299505      0.059784     -0.099919
    33   Atom       -0.205738     -0.045232     -0.044132
    34   Atom        0.002647      0.207862      0.004764
    35   Atom        0.069230     -0.199319      0.081834
    36   Atom        0.001158      0.112205     -0.029338
    37   Atom        0.169103      0.021862     -0.041187
    38   Atom        0.185130      0.026647     -0.049484
    39   Atom        0.004744      0.102475     -0.026978
    40   Atom        0.182558      0.028633     -0.055644
    41   Atom        0.001487      0.098495     -0.020859
    42   Atom        0.012810      0.069480     -0.066611
    43   Atom       -0.003861     -0.226810     -0.009505
    44   Atom       -0.166402      0.045687      0.013953
    45   Atom        0.128121     -0.166234      0.135154
    46   Atom        0.010577      0.108133     -0.023215
    47   Atom       -0.145484      0.019744      0.010346
    48   Atom       -0.065194     -0.025068     -0.129412
    49   Atom        0.000464      0.118252     -0.005679
    50   Atom        0.075809      0.041773     -0.000986
    51   Atom       -0.141510     -0.111003     -0.169321
    52   Atom        0.084409     -0.032524      0.153907
    53   Atom       -0.049380      0.195749      0.000544
    54   Atom        0.102486      0.153119     -0.054904
    55   Atom        0.100845     -0.189044      0.120677
    56   Atom       -0.161189      0.074728      0.134926
    57   Atom        0.026182     -0.025031      0.009053
    58   Atom       -0.069825     -0.012294      0.006218
    59   Atom       -0.060471     -0.052578     -0.194302
    60   Atom       -0.011609      0.136129      0.065186
    61   Atom        0.165157      0.072626     -0.083893
    62   Atom        0.086343     -0.069018      0.011150
    63   Atom        0.029182     -0.023600      0.219442
    64   Atom       -0.170432     -0.058658     -0.119657
 --------------------------------------------------------


 ---------------------------------------------------------------------------------
              Nuclear Quadrupole in Principal Axis System
 ---------------------------------------------------------------------------------

       Atom             a.u.   MegaHertz   Gauss  10(-4) cm-1        Axes

              Baa    -0.2835   -38.041   -13.574   -12.689  0.7319 -0.0522  0.6794
     1 C(13)  Bbb     0.1225    16.438     5.865     5.483 -0.6730 -0.2116  0.7087
              Bcc     0.1610    21.603     7.708     7.206 -0.1068  0.9760  0.1900
 
              Baa    -0.5240   -20.208    -7.211    -6.741  0.3092  0.1693  0.9358
     2 N(14)  Bbb    -0.4846   -18.691    -6.669    -6.234  0.7867 -0.5984 -0.1517
              Bcc     1.0086    38.899    13.880    12.975  0.5343  0.7831 -0.3183
 
              Baa    -0.5792   -77.721   -27.733   -25.925  0.4371  0.8496 -0.2951
     3 C(13)  Bbb     0.1774    23.806     8.494     7.941 -0.0922  0.3687  0.9250
              Bcc     0.4018    53.915    19.238    17.984  0.8947 -0.3771  0.2395
 
              Baa    -0.9562    69.188    24.688    23.079  0.8068 -0.4953 -0.3222
     4 O(17)  Bbb    -0.7157    51.787    18.479    17.274  0.4199  0.8642 -0.2773
              Bcc     1.6719  -120.975   -43.167   -40.353  0.4157  0.0884  0.9052
 
              Baa    -0.2352   -31.565   -11.263   -10.529 -0.1809  0.0673  0.9812
     5 C(13)  Bbb     0.0691     9.272     3.308     3.093  0.9737 -0.1281  0.1883
              Bcc     0.1661    22.293     7.955     7.436  0.1384  0.9895 -0.0424
 
              Baa    -0.1015   -13.622    -4.861    -4.544 -0.5552  0.7673  0.3209
     6 C(13)  Bbb     0.0185     2.477     0.884     0.826  0.0336 -0.3648  0.9305
              Bcc     0.0830    11.144     3.977     3.717  0.8310  0.5274  0.1767
 
              Baa    -0.0734    -9.852    -3.515    -3.286  0.6094  0.7461 -0.2682
     7 C(13)  Bbb     0.0327     4.385     1.565     1.463  0.7585 -0.4500  0.4714
              Bcc     0.0407     5.467     1.951     1.824 -0.2310  0.4907  0.8401
 
              Baa    -0.0413    -5.538    -1.976    -1.847  0.8589  0.3438  0.3795
     8 C(13)  Bbb    -0.0029    -0.394    -0.141    -0.132 -0.1136  0.8506 -0.5134
              Bcc     0.0442     5.932     2.117     1.979 -0.4993  0.3978  0.7697
 
              Baa    -0.0150    -2.017    -0.720    -0.673  0.4714 -0.5154  0.7156
     9 C(13)  Bbb    -0.0119    -1.594    -0.569    -0.532  0.6375  0.7599  0.1274
              Bcc     0.0269     3.610     1.288     1.204 -0.6094  0.3962  0.6868
 
              Baa    -0.3043   -40.829   -14.569   -13.619  0.0856  0.9872 -0.1346
    10 C(13)  Bbb     0.0831    11.156     3.981     3.721  0.3210  0.1005  0.9417
              Bcc     0.2211    29.673    10.588     9.898  0.9432 -0.1238 -0.3083
 
              Baa    -0.2996   -40.202   -14.345   -13.410  0.1057  0.9844 -0.1408
    11 C(13)  Bbb     0.0885    11.870     4.236     3.959  0.3327  0.0984  0.9379
              Bcc     0.2111    28.332    10.110     9.451  0.9371 -0.1460 -0.3171
 
              Baa    -0.0349    -4.688    -1.673    -1.564 -0.2285  0.4004  0.8874
    12 C(13)  Bbb    -0.0175    -2.344    -0.836    -0.782 -0.0499  0.9055 -0.4214
              Bcc     0.0524     7.032     2.509     2.346  0.9723  0.1406  0.1870
 
              Baa    -0.0323    -4.339    -1.548    -1.447  0.6911 -0.4897  0.5316
    13 C(13)  Bbb    -0.0023    -0.306    -0.109    -0.102  0.3122  0.8656  0.3914
              Bcc     0.0346     4.645     1.658     1.550 -0.6518 -0.1045  0.7511
 
              Baa    -0.0802   -10.764    -3.841    -3.591  0.9819  0.1856 -0.0386
    14 C(13)  Bbb     0.0303     4.061     1.449     1.355 -0.1794  0.8438 -0.5058
              Bcc     0.0499     6.703     2.392     2.236 -0.0613  0.5035  0.8618
 
              Baa    -0.2342   -31.425   -11.213   -10.482  0.1408  0.9097  0.3906
    15 C(13)  Bbb     0.0670     8.992     3.208     2.999  0.6131 -0.3899  0.6871
              Bcc     0.1672    22.434     8.005     7.483  0.7774  0.1427 -0.6126
 
              Baa    -0.1001   -13.438    -4.795    -4.482 -0.1298  0.1008  0.9864
    16 C(13)  Bbb     0.0162     2.170     0.774     0.724  0.2296  0.9708 -0.0690
              Bcc     0.0840    11.268     4.021     3.759  0.9646 -0.2175  0.1492
 
              Baa    -0.5667   -21.855    -7.799    -7.290  0.4537  0.7302  0.5108
    17 N(14)  Bbb    -0.4408   -17.000    -6.066    -5.671 -0.6387 -0.1333  0.7578
              Bcc     1.0074    38.855    13.864    12.961 -0.6215  0.6701 -0.4059
 
              Baa    -0.5830   -78.236   -27.916   -26.097 -0.4638  0.6666 -0.5836
    18 C(13)  Bbb     0.1826    24.507     8.745     8.175  0.8402  0.5398 -0.0512
              Bcc     0.4004    53.729    19.172    17.922 -0.2809  0.5141  0.8104
 
              Baa    -0.0586    -7.857    -2.804    -2.621 -0.0563  0.7423  0.6677
    19 C(13)  Bbb     0.0216     2.894     1.033     0.965  0.9114 -0.2348  0.3379
              Bcc     0.0370     4.963     1.771     1.656 -0.4076 -0.6276  0.6633
 
              Baa    -0.9721    70.340    25.099    23.463  0.8332 -0.4053 -0.3762
    20 O(17)  Bbb    -0.7687    55.625    19.849    18.555  0.1099 -0.5453  0.8310
              Bcc     1.7408  -125.966   -44.948   -42.018  0.5420  0.7337  0.4098
 
              Baa    -0.5791   -77.715   -27.731   -25.923  0.9165  0.3112 -0.2514
    21 C(13)  Bbb     0.1782    23.908     8.531     7.975 -0.1366  0.8341  0.5345
              Bcc     0.4010    53.807    19.200    17.948  0.3760 -0.4555  0.8069
 
              Baa    -0.9569    69.238    24.706    23.095  0.2484  0.0919  0.9643
    22 O(17)  Bbb    -0.7145    51.701    18.448    17.246  0.9161  0.3010 -0.2647
              Bcc     1.6714  -120.939   -43.154   -40.341 -0.3146  0.9492 -0.0094
 
              Baa    -0.5249   -20.243    -7.223    -6.752 -0.2868  0.9485  0.1347
    23 N(14)  Bbb    -0.4843   -18.678    -6.665    -6.230  0.1711 -0.0876  0.9814
              Bcc     1.0092    38.921    13.888    12.983  0.9426  0.3045 -0.1371
 
              Baa    -0.2848   -38.217   -13.637   -12.748 -0.4540  0.8101 -0.3709
    24 C(13)  Bbb     0.1231    16.516     5.893     5.509  0.6753  0.5844  0.4500
              Bcc     0.1617    21.700     7.743     7.238 -0.5813  0.0462  0.8124
 
              Baa    -0.5664   -21.843    -7.794    -7.286 -0.5108 -0.0250  0.8593
    25 N(14)  Bbb    -0.4486   -17.303    -6.174    -5.772 -0.0170  0.9997  0.0189
              Bcc     1.0150    39.147    13.968    13.058  0.8595  0.0050  0.5111
 
              Baa    -0.5825   -78.164   -27.891   -26.073  0.8505 -0.2237  0.4759
    26 C(13)  Bbb     0.1817    24.381     8.700     8.133  0.4863  0.6793 -0.5496
              Bcc     0.4008    53.783    19.191    17.940 -0.2004  0.6989  0.6866
 
              Baa    -0.0585    -7.846    -2.800    -2.617 -0.2405  0.4070  0.8812
    27 C(13)  Bbb     0.0218     2.923     1.043     0.975  0.9451  0.3052  0.1170
              Bcc     0.0367     4.923     1.757     1.642 -0.2214  0.8609 -0.4581
 
              Baa    -0.9689    70.112    25.018    23.387  0.4541  0.7710  0.4464
    28 O(17)  Bbb    -0.7633    55.229    19.707    18.423  0.7257 -0.6108  0.3166
              Bcc     1.7322  -125.341   -44.725   -41.809 -0.5168 -0.1802  0.8369
 
              Baa    -0.2963  -158.099   -56.414   -52.736 -0.3325  0.1652  0.9285
    29 H(1)   Bbb     0.1361    72.633    25.917    24.228  0.9049 -0.2215  0.3634
              Bcc     0.1602    85.465    30.496    28.508  0.2657  0.9611 -0.0758
 
              Baa    -0.2908  -155.141   -55.358   -51.750 -0.4064  0.9128  0.0412
    30 H(1)   Bbb     0.1342    71.628    25.559    23.893  0.7087  0.2864  0.6448
              Bcc     0.1565    83.513    29.799    27.857 -0.5767 -0.2912  0.7632
 
              Baa    -0.2939  -156.819   -55.957   -52.309  0.6979  0.6814 -0.2204
    31 H(1)   Bbb     0.1366    72.884    26.007    24.311  0.5605 -0.3281  0.7604
              Bcc     0.1573    83.935    29.950    27.998 -0.4458  0.6542  0.6109
 
              Baa    -0.3948  -210.652   -75.166   -70.266 -0.6911  0.6930  0.2055
    32 H(1)   Bbb     0.1554    82.935    29.593    27.664  0.3967  0.1260  0.9093
              Bcc     0.2394   127.717    45.573    42.602  0.6042  0.7099 -0.3620
 
              Baa    -0.2870  -153.120   -54.637   -51.075  0.6714  0.7267  0.1454
    33 H(1)   Bbb     0.1345    71.763    25.607    23.937  0.7030 -0.6866  0.1853
              Bcc     0.1525    81.358    29.030    27.138 -0.2345  0.0222  0.9719
 
              Baa    -0.2944  -157.055   -56.041   -52.388 -0.5703 -0.0055  0.8214
    34 H(1)   Bbb     0.1418    75.675    27.003    25.243 -0.4513  0.8376 -0.3078
              Bcc     0.1525    81.380    29.038    27.145  0.6863  0.5462  0.4802
 
              Baa    -0.2942  -156.984   -56.016   -52.364  0.5813 -0.2520  0.7737
    35 H(1)   Bbb     0.1402    74.819    26.697    24.957 -0.3249  0.7999  0.5046
[...]
 **** Fit       0.018606
 **** Fit      -0.004110
 **** Fit      -0.010195
 **** Fit      -0.006970
 **** Fit      -0.004362
 **** Fit      -0.002227
 **** Fit      -0.000425
 **** Fit      -0.017208
 **** Fit      -0.012516
 **** Fit      -0.008870
 **** Fit      -0.006000
 **** Fit      -0.003697
 **** Fit      -0.001801
 **** Fit      -0.000185
 **** Fit       0.001272
 **** Fit      -0.019990
 **** Fit      -0.014733
 **** Fit      -0.010770
 **** Fit      -0.007691
 **** Fit      -0.005233
 **** Fit      -0.003224
 **** Fit      -0.001541
 **** Fit      -0.000084
 **** Fit       0.001241
 **** Fit       0.002536
 **** Fit      -0.019134
 **** Fit      -0.014188
 **** Fit      -0.010467
 **** Fit      -0.007552
 **** Fit      -0.005198
 **** Fit      -0.003255
 **** Fit      -0.001614
 **** Fit      -0.000186
 **** Fit       0.001115
 **** Fit       0.002385
 **** Fit      -0.024124
 **** Fit      -0.018148
 **** Fit      -0.013770
 **** Fit      -0.010378
 **** Fit      -0.007647
 **** Fit      -0.005392
 **** Fit      -0.003499
 **** Fit      -0.001882
 **** Fit      -0.000464
 **** Fit       0.000832
 **** Fit       0.002094
 **** Fit      -0.021028
 **** Fit      -0.016351
 **** Fit      -0.012682
 **** Fit      -0.009685
 **** Fit      -0.007182
 **** Fit      -0.005065
 **** Fit      -0.003255
 **** Fit      -0.001680
 **** Fit      -0.000270
 **** Fit       0.001053
 **** Fit       0.002385
 **** Fit      -0.027013
 **** Fit      -0.021383
 **** Fit      -0.016938
 **** Fit      -0.013266
 **** Fit      -0.010176
 **** Fit      -0.007556
 **** Fit      -0.005325
 **** Fit      -0.003405
 **** Fit      -0.001720
 **** Fit      -0.000187
 **** Fit       0.001293
 **** Fit       0.002839
 **** Fit      -0.026342
 **** Fit      -0.021225
 **** Fit      -0.016812
 **** Fit      -0.013033
 **** Fit      -0.009824
 **** Fit      -0.007105
 **** Fit      -0.004785
 **** Fit      -0.002767
 **** Fit      -0.000944
 **** Fit       0.000806
 **** Fit      -0.021641
 **** Fit      -0.016862
 **** Fit      -0.012818
 **** Fit      -0.009428
 **** Fit      -0.006572
 **** Fit      -0.004114
 **** Fit      -0.001911
 **** Fit       0.000196
 **** Fit      -0.023730
 **** Fit      -0.017857
 **** Fit      -0.013071
 **** Fit      -0.009163
 **** Fit      -0.005892
 **** Fit      -0.003012
 **** Fit      -0.000268
 **** Fit      -0.017901
 **** Fit      -0.012477
 **** Fit      -0.008080
 **** Fit      -0.004290
 **** Fit      -0.020701
 **** Fit      -0.013719
 **** Fit      -0.008115
 **** Fit       0.006110
 **** Fit       0.006259
 **** Fit       0.006150
 **** Fit       0.005757
 **** Fit       0.006223
 **** Fit       0.006635
 **** Fit       0.006899
 **** Fit       0.006955
 **** Fit       0.006763
 **** Fit       0.006309
 **** Fit       0.005608
 **** Fit       0.006425
 **** Fit       0.006960
 **** Fit       0.007384
 **** Fit       0.007645
 **** Fit       0.007701
 **** Fit       0.007525
 **** Fit       0.007098
 **** Fit       0.006411
 **** Fit       0.006549
 **** Fit       0.007180
 **** Fit       0.007727
 **** Fit       0.008146
 **** Fit       0.008402
 **** Fit       0.008471
 **** Fit       0.008330
 **** Fit       0.007959
 **** Fit       0.007340
 **** Fit       0.006453
 **** Fit       0.005914
 **** Fit       0.006677
 **** Fit       0.007417
 **** Fit       0.008078
 **** Fit       0.008618
 **** Fit       0.009006
 **** Fit       0.009220
 **** Fit       0.009239
 **** Fit       0.009042
 **** Fit       0.008605
 **** Fit       0.007893
 **** Fit       0.006861
 **** Fit       0.005907
 **** Fit       0.006768
 **** Fit       0.007605
 **** Fit       0.008364
 **** Fit       0.009011
 **** Fit       0.009520
 **** Fit       0.009874
 **** Fit       0.010054
 **** Fit       0.010044
 **** Fit       0.009819
 **** Fit       0.009346
 **** Fit       0.008568
 **** Fit       0.007398
 **** Fit       0.006409
 **** Fit       0.007371
 **** Fit       0.008273
 **** Fit       0.009077
 **** Fit       0.009760
 **** Fit       0.010306
 **** Fit       0.010699
 **** Fit       0.010928
 **** Fit       0.010975
 **** Fit       0.010813
 **** Fit       0.010395
 **** Fit       0.009638
 **** Fit       0.008399
 **** Fit       0.006030
 **** Fit       0.007160
 **** Fit       0.008232
 **** Fit       0.009207
 **** Fit       0.010062
 **** Fit       0.010783
 **** Fit       0.011357
 **** Fit       0.011777
 **** Fit       0.012029
 **** Fit       0.012087
 **** Fit       0.011903
 **** Fit       0.011379
 **** Fit       0.010322
 **** Fit       0.006309
 **** Fit       0.007618
 **** Fit       0.008841
 **** Fit       0.009950
 **** Fit       0.010930
 **** Fit       0.011773
 **** Fit       0.012476
 **** Fit       0.013036
 **** Fit       0.013440
 **** Fit       0.013656
 **** Fit       0.013600
 **** Fit       0.006865
 **** Fit       0.008333
 **** Fit       0.009696
 **** Fit       0.010940
 **** Fit       0.012064
 **** Fit       0.013073
 **** Fit       0.013977
 **** Fit       0.014786
 **** Fit       0.015501
 **** Fit       0.016092
 **** Fit       0.009632
 **** Fit       0.011209
 **** Fit       0.012680
 **** Fit       0.014067
 **** Fit       0.015407
 **** Fit       0.016753
 **** Fit       0.018170
 **** Fit       0.011668
 **** Fit       0.013507
 **** Fit       0.015338
 **** Fit       0.017248
 **** Fit       0.019381
 **** Fit       0.016227
 **** Fit       0.018803
 **** Fit      -0.001417
 **** Fit      -0.002143
 **** Fit      -0.003504
 **** Fit      -0.002708
 **** Fit      -0.000810
 **** Fit       0.000201
 **** Fit      -0.000368
 **** Fit      -0.003019
 **** Fit      -0.005064
 **** Fit      -0.006237
 **** Fit      -0.005889
 **** Fit      -0.004261
 **** Fit      -0.002153
 **** Fit      -0.000276
 **** Fit       0.000978
 **** Fit       0.001492
 **** Fit       0.001301
 **** Fit       0.000462
 **** Fit      -0.001013
 **** Fit      -0.004064
 **** Fit      -0.006516
 **** Fit      -0.008681
 **** Fit      -0.009873
 **** Fit      -0.009686
 **** Fit      -0.008257
 **** Fit      -0.006093
 **** Fit      -0.003729
 **** Fit      -0.001546
 **** Fit       0.000238
 **** Fit       0.001524
 **** Fit       0.002291
 **** Fit       0.002576
 **** Fit       0.002441
 **** Fit       0.001945
 **** Fit       0.001099
 **** Fit      -0.000147
 **** Fit      -0.001867
 **** Fit      -0.005278
 **** Fit      -0.008258
 **** Fit      -0.011303
 **** Fit      -0.013737
 **** Fit      -0.014882
 **** Fit      -0.014449
 **** Fit      -0.012676
 **** Fit      -0.010104
 **** Fit      -0.007261
 **** Fit      -0.004513
 **** Fit      -0.002071
 **** Fit       0.003566
 **** Fit       0.003485
 **** Fit       0.003125
 **** Fit       0.002537
 **** Fit       0.001727
 **** Fit       0.000644
 **** Fit      -0.000812
 **** Fit      -0.002762
 **** Fit      -0.006636
 **** Fit      -0.010324
 **** Fit      -0.014460
 **** Fit      -0.018340
 **** Fit      -0.021017
 **** Fit      -0.021765
 **** Fit      -0.020500
 **** Fit      -0.017752
 **** Fit      -0.014258
 **** Fit      -0.010614
 **** Fit      -0.007173
 **** Fit       0.003830
 **** Fit       0.003162
 **** Fit       0.002357
 **** Fit       0.001381
 **** Fit       0.000146
 **** Fit      -0.001486
 **** Fit      -0.003695
 **** Fit      -0.008066
 **** Fit      -0.012532
 **** Fit      -0.024334
 **** Fit      -0.019507
 **** Fit       0.002883
 **** Fit       0.001932
 **** Fit       0.000841
 **** Fit      -0.000498
 **** Fit      -0.002264
 **** Fit      -0.004699
 **** Fit      -0.009419
 **** Fit       0.001621
 **** Fit       0.000427
 **** Fit      -0.000977
 **** Fit      -0.002824
 **** Fit      -0.005481
 **** Fit      -0.001639
 **** Fit      -0.003404
 **** Fit      -0.006071
 **** Fit       0.021137
 **** Fit       0.022716
 **** Fit       0.023188
 **** Fit       0.023182
 **** Fit       0.023100
 **** Fit       0.021769
 **** Fit       0.022439
 **** Fit       0.022885
 **** Fit       0.023192
 **** Fit       0.023455
 **** Fit       0.019537
 **** Fit       0.020749
 **** Fit       0.021711
 **** Fit       0.022459
 **** Fit       0.023055
 **** Fit       0.014402
 **** Fit       0.016514
 **** Fit       0.018350
 **** Fit       0.019873
 **** Fit       0.021112
 **** Fit       0.022126
 **** Fit       0.022971
 **** Fit       0.008478
 **** Fit       0.011935
 **** Fit       0.014741
 **** Fit       0.017028
 **** Fit       0.018895
 **** Fit       0.020442
 **** Fit       0.021764
 **** Fit       0.001203
 **** Fit       0.006834
 **** Fit       0.011057
 **** Fit       0.014328
 **** Fit       0.016936
 **** Fit       0.000081
 **** Fit       0.006331
 **** Fit       0.010945
 **** Fit      -0.000696
 **** Fit       0.000939
 **** Fit       0.002303
 **** Fit       0.003468
 **** Fit       0.004490
 **** Fit       0.005426
 **** Fit       0.006334
 **** Fit      -0.003283
 **** Fit      -0.001220
 **** Fit       0.000481
 **** Fit       0.001908
 **** Fit       0.003124
 **** Fit       0.004184
 **** Fit       0.005139
 **** Fit       0.006044
 **** Fit       0.006964
 **** Fit       0.007984
 **** Fit      -0.005835
 **** Fit      -0.003833
 **** Fit      -0.001668
 **** Fit       0.000128
 **** Fit       0.001635
 **** Fit       0.002917
 **** Fit       0.004030
 **** Fit       0.005029
 **** Fit       0.005976
 **** Fit       0.006944
 **** Fit       0.008028
 **** Fit       0.009357
 **** Fit      -0.009773
 **** Fit      -0.006480
 **** Fit      -0.004540
 **** Fit      -0.002226
 **** Fit      -0.000308
 **** Fit       0.001296
 **** Fit       0.002654
 **** Fit       0.003830
 **** Fit       0.004889
 **** Fit       0.005906
 **** Fit       0.006973
 **** Fit       0.008213
 **** Fit       0.009797
 **** Fit      -0.015073
 **** Fit      -0.010804
 **** Fit      -0.007353
 **** Fit      -0.005559
 **** Fit      -0.003075
 **** Fit      -0.001024
 **** Fit       0.000680
 **** Fit       0.002116
 **** Fit       0.003354
 **** Fit       0.004473
 **** Fit       0.005561
 **** Fit       0.006733
 **** Fit       0.008142
 **** Fit       0.010010
 **** Fit       0.012676
 **** Fit      -0.016769
 **** Fit      -0.012273
 **** Fit      -0.008582
 **** Fit      -0.007027
 **** Fit      -0.004155
 **** Fit      -0.001842
 **** Fit       0.000037
 **** Fit       0.001590
 **** Fit       0.002922
 **** Fit       0.004145
 **** Fit       0.005398
 **** Fit       0.006861
 **** Fit       0.008789
 **** Fit       0.011558
 **** Fit      -0.020741
 **** Fit      -0.015107
 **** Fit      -0.010613
 **** Fit      -0.009048
 **** Fit      -0.005670
 **** Fit      -0.003050
 **** Fit      -0.000995
 **** Fit       0.000651
 **** Fit       0.002036
 **** Fit       0.003317
 **** Fit       0.004669
 **** Fit       0.006291
 **** Fit       0.008346
 **** Fit      -0.019216
 **** Fit      -0.013439
 **** Fit      -0.011653
 **** Fit      -0.007506
 **** Fit      -0.004502
 **** Fit      -0.002321
 **** Fit      -0.000726
 **** Fit       0.000459
 **** Fit       0.001311
 **** Fit       0.001606
 **** Fit      -0.017416
 **** Fit      -0.014725
 **** Fit      -0.009457
 **** Fit      -0.006235
 **** Fit      -0.004591
 **** Fit      -0.004556
 **** Fit      -0.007269
 **** Fit      -0.011895
 **** Fit      -0.011855
 **** Fit       0.001237
 **** Fit       0.000980
 **** Fit       0.002300
 **** Fit       0.002556
 **** Fit       0.001513
 **** Fit      -0.000151
 **** Fit      -0.000425
 **** Fit       0.000683
 **** Fit       0.002121
 **** Fit       0.003094
 **** Fit       0.003606
 **** Fit       0.003652
 **** Fit       0.003121
 **** Fit       0.001889
 **** Fit       0.000024
 **** Fit      -0.001943
 **** Fit      -0.003001
 **** Fit      -0.002558
 **** Fit      -0.001054
 **** Fit       0.000305
 **** Fit       0.001767
 **** Fit       0.002869
 **** Fit       0.003659
 **** Fit       0.004202
 **** Fit       0.004540
 **** Fit       0.004650
 **** Fit      -0.001787
 **** Fit      -0.004260
 **** Fit      -0.005987
 **** Fit      -0.006322
 **** Fit      -0.005305
 **** Fit      -0.003499
 **** Fit      -0.001503
 **** Fit      -0.000185
 **** Fit       0.001349
 **** Fit       0.002538
 **** Fit       0.003443
 **** Fit       0.004137
 **** Fit       0.004685
 **** Fit       0.005138
 **** Fit      -0.006195
 **** Fit      -0.009239
 **** Fit      -0.010900
 **** Fit      -0.010772
 **** Fit      -0.009196
 **** Fit      -0.006863
 **** Fit      -0.004379
 **** Fit      -0.002103
 **** Fit      -0.000801
 **** Fit       0.000836
 **** Fit       0.002117
 **** Fit       0.003117
 **** Fit       0.003910
 **** Fit       0.004565
 **** Fit       0.005149
 **** Fit      -0.017242
 **** Fit      -0.014917
 **** Fit      -0.011718
 **** Fit      -0.008410
 **** Fit      -0.005407
 **** Fit      -0.002866
 **** Fit      -0.001547
 **** Fit       0.000172
 **** Fit       0.001533
 **** Fit       0.002616
 **** Fit       0.003495
 **** Fit       0.004236
 **** Fit       0.004902
 **** Fit      -0.018352
 **** Fit      -0.013798
 **** Fit      -0.009783
 **** Fit      -0.006432
 **** Fit      -0.003716
 **** Fit      -0.002413
 **** Fit      -0.000531
 **** Fit       0.000960
 **** Fit       0.002158
 **** Fit       0.003144
 **** Fit       0.003989
 **** Fit      -0.016730
 **** Fit      -0.011774
 **** Fit      -0.007867
 **** Fit      -0.004808
 **** Fit      -0.003373
 **** Fit      -0.001344
 **** Fit       0.000275
 **** Fit       0.001594
 **** Fit       0.002697
 **** Fit       0.003658
 **** Fit      -0.019413
 **** Fit      -0.013652
 **** Fit      -0.009291
 **** Fit      -0.005956
 **** Fit      -0.004381
 **** Fit      -0.002167
 **** Fit      -0.000386
 **** Fit       0.001087
 **** Fit      -0.015768
 **** Fit      -0.010869
 **** Fit      -0.007198
 **** Fit      -0.005361
 **** Fit      -0.002854
 **** Fit      -0.000819
 **** Fit      -0.018629
 **** Fit      -0.012802
 **** Fit      -0.008563
 **** Fit       0.006394
 **** Fit       0.005960
 **** Fit       0.006976
 **** Fit       0.007375
 **** Fit       0.007304
 **** Fit       0.006646
 **** Fit       0.007336
 **** Fit       0.007934
 **** Fit       0.008358
 **** Fit       0.008467
 **** Fit       0.008159
 **** Fit       0.007411
 **** Fit       0.006321
 **** Fit       0.007748
 **** Fit       0.008425
 **** Fit       0.009020
 **** Fit       0.009431
 **** Fit       0.009562
 **** Fit       0.009331
 **** Fit       0.008684
 **** Fit       0.007645
 **** Fit       0.006356
 **** Fit       0.008257
 **** Fit       0.008998
 **** Fit       0.009689
 **** Fit       0.010251
 **** Fit       0.010606
 **** Fit       0.010669
 **** Fit       0.010355
 **** Fit       0.009591
 **** Fit       0.008368
 **** Fit       0.006813
 **** Fit       0.005235
 **** Fit       0.007985
 **** Fit       0.008732
 **** Fit       0.009514
 **** Fit       0.010273
 **** Fit       0.010951
 **** Fit       0.011488
 **** Fit       0.011814
 **** Fit       0.011844
 **** Fit       0.011474
 **** Fit       0.010593
 **** Fit       0.009130
 **** Fit       0.007143
 **** Fit       0.008733
 **** Fit       0.009566
 **** Fit       0.010425
 **** Fit       0.011260
 **** Fit       0.012021
 **** Fit       0.012651
 **** Fit       0.013075
 **** Fit       0.013188
 **** Fit       0.012843
 **** Fit       0.011846
 **** Fit       0.009988
 **** Fit       0.009545
 **** Fit       0.010446
 **** Fit       0.011378
 **** Fit       0.012300
 **** Fit       0.013168
 **** Fit       0.013930
 **** Fit       0.014507
 **** Fit       0.014779
 **** Fit       0.014551
 **** Fit       0.013520
 **** Fit       0.009721
 **** Fit       0.010653
 **** Fit       0.011664
 **** Fit       0.012718
 **** Fit       0.013778
 **** Fit       0.014805
 **** Fit       0.015741
 **** Fit       0.016487
 **** Fit       0.016864
 **** Fit       0.016545
 **** Fit       0.010358
 **** Fit       0.011404
 **** Fit       0.012581
 **** Fit       0.013852
 **** Fit       0.015189
 **** Fit       0.016557
 **** Fit       0.017899
 **** Fit       0.019091
 **** Fit       0.019864
 **** Fit       0.011398
 **** Fit       0.012675
 **** Fit       0.014160
 **** Fit       0.015830
 **** Fit       0.017675
 **** Fit       0.019685
 **** Fit       0.021801
 **** Fit       0.012774
 **** Fit       0.014409
 **** Fit       0.016393
 **** Fit       0.018748
 **** Fit       0.021549
 **** Fit       0.015943
 **** Fit       0.018738
 **** Fit       0.022369
 -----------------------------------------------------------------
 Leave Link  602 at Sat Dec  7 01:40:28 2019, MaxMem=   33554432 cpu:       5.4

 Test job not archived.
 1\1\GINC-MOSURA\FOpt\RHF\6-31G(d)\C20H36N4O4\MARIE\07-Dec-2019\0\\#HF/
 6-31G* SCF=tight Test Pop=MK iop(6/33=2) iop(6/42=6) opt\\remark line 
 goes here\\0,1\C,-7.3760195826,2.6833247528,-0.4763749815\N,-6.2760111
 675,1.9034931999,0.0548994392\C,-5.9610854794,0.714692249,-0.498915672
 \O,-6.4630329227,0.3262065611,-1.5203703413\C,-4.8281476806,-0.1151717
 959,0.1524060929\C,-4.4706481252,0.3035728653,1.5844109066\C,-3.614240
 104,0.0530180725,-0.7913500362\C,-2.3361356276,-0.6886904196,-0.387386
 4342\C,-1.24823007,-0.5690825746,-1.4652024068\C,0.0000734413,-1.32616
 28633,-1.093920255\C,1.2280034723,-0.8653697121,-0.9177719353\C,1.7227
 017655,0.5537738748,-1.0460375865\C,2.1754670242,1.1753982547,0.288652
 7212\C,3.366974614,0.5355842265,1.0207573239\C,4.7808298165,0.65727617
 37,0.3937378336\C,5.0789362449,2.1069829856,-0.009343517\N,4.867777046
 3,-0.2192502401,-0.7715540593\C,6.0696089405,-0.4840478746,-1.36512299
 99\C,6.0733272956,-1.677250269,-2.2933142929\O,7.0520632191,0.17561911
 03,-1.1673108542\C,5.7310560396,0.0832427933,1.473374669\O,5.748906884
 1,-1.1031314254,1.6705853906\N,6.433706434,0.9519264454,2.2286479907\C
 ,7.3817183469,0.4623550816,3.2094802742\N,-5.2328272981,-1.5178332034,
 0.1241029463\C,-6.4161456717,-1.9225279954,0.6691544905\C,-6.871839783
 2,-3.3039347669,0.2575158125\O,-7.0539518175,-1.2350784351,1.418284479
 9\H,-7.3830952493,3.6485283825,0.0129424913\H,-7.239214613,2.828021291
 5,-1.5376386178\H,-8.3308357953,2.1948455019,-0.3162056104\H,-6.035993
 4051,2.0524374779,1.0061297115\H,-5.3399779787,0.3011108927,2.22564912
 01\H,-4.013128183,1.2883348612,1.5963627892\H,-3.7588397867,-0.3980825
 789,1.9979277111\H,-3.3996763359,1.1158622572,-0.8659392809\H,-3.92343
 01126,-0.2623561619,-1.783202172\H,-1.9465374616,-0.2925877458,0.54441
 43145\H,-2.5501407582,-1.7387900311,-0.2077129884\H,-1.6335501546,-0.9
 702486673,-2.4013660602\H,-1.0341762237,0.4776547515,-1.6465491667\H,-
 0.1513831276,-2.3857687612,-0.9514725797\H,1.9747110066,-1.595028987,-
 0.6445572738\H,2.5394288878,0.5828969356,-1.7600280669\H,0.9421822545,
 1.1850518875,-1.4531023728\H,2.3750961268,2.2294929057,0.1254957194\H,
 1.3337050865,1.1352244145,0.9752918134\H,3.4252736493,1.0062102577,1.9
 981638209\H,3.1747290688,-0.5140446897,1.2152596143\H,6.1100627174,2.2
 308289883,-0.3053974462\H,4.8495408985,2.7892631174,0.8036842566\H,4.4
 622315808,2.3813191932,-0.8547865876\H,4.2478935682,-0.9975691769,-0.7
 47128048\H,5.1472656259,-1.7619606589,-2.8503264648\H,6.20135883,-2.57
 83095955,-1.700828824\H,6.9062762013,-1.5909710193,-2.975778877\H,6.58
 23688437,1.8663887015,1.8733874391\H,8.2265334389,-0.0313164774,2.7420
 746571\H,7.7377775191,1.3005836042,3.7939779191\H,6.8937817922,-0.2423
 424452,3.866206704\H,-4.9619205415,-2.0132420422,-0.6962769006\H,-7.37
 50922999,-3.2332861706,-0.7021685429\H,-7.5737152756,-3.6764622756,0.9
 893376959\H,-6.0413450487,-3.9936230083,0.1591251041\\Version=EM64L-G0
 9RevA.02\State=1-A\HF=-1295.6243704\RMSD=8.393e-09\RMSF=1.684e-06\Dipo
 le=0.1326058,0.7145134,0.1701063\Quadrupole=-28.8251971,22.3968263,6.4
 283708,4.992389,2.9598389,10.9113571\PG=C01 [X(C20H36N4O4)]\\@


 FRICTION IS A DRAG,
 AND ENTROPY AIN'T WHAT IT USED TO BE.
 Job cpu time:  0 days  2 hours 36 minutes 21.9 seconds.
 File lengths (MBytes):  RWF=    156 Int=      0 D2E=      0 Chk=     19 Scr=      1
 Normal termination of Gaussian 09 at Sat Dec  7 01:40:28 2019.
