 Entering Gaussian System, Link 0=g09
 Input=18.gau
 Output=18.log
 Initial command:
 /home/marie/Utilities//g09/l1.exe /tmp/g09/Gau-9805.inp -scrdir=/tmp/g09/
 Entering Link 1 = /home/marie/Utilities//g09/l1.exe PID=      9807.
  
 Copyright (c) 1988,1990,1992,1993,1995,1998,2003,2009, Gaussian, Inc.
                  All Rights Reserved.
  
 This is part of the Gaussian(R) 09 program.  It is based on
 the Gaussian(R) 03 system (copyright 2003, Gaussian, Inc.),
 the Gaussian(R) 98 system (copyright 1998, Gaussian, Inc.),
 the Gaussian(R) 94 system (copyright 1995, Gaussian, Inc.),
 the Gaussian 92(TM) system (copyright 1992, Gaussian, Inc.),
 the Gaussian 90(TM) system (copyright 1990, Gaussian, Inc.),
 the Gaussian 88(TM) system (copyright 1988, Gaussian, Inc.),
 the Gaussian 86(TM) system (copyright 1986, Carnegie Mellon
 University), and the Gaussian 82(TM) system (copyright 1983,
 Carnegie Mellon University). Gaussian is a federally registered
 trademark of Gaussian, Inc.
  
 This software contains proprietary and confidential information,
 including trade secrets, belonging to Gaussian, Inc.
  
 This software is provided under written license and may be
 used, copied, transmitted, or stored only in accord with that
 written license.
  
 The following legend is applicable only to US Government
 contracts under FAR:
  
                    RESTRICTED RIGHTS LEGEND
  
 Use, reproduction and disclosure by the US Government is
 subject to restrictions as set forth in subparagraphs (a)
 and (c) of the Commercial Computer Software - Restricted
 Rights clause in FAR 52.227-19.
  
 Gaussian, Inc.
 340 Quinnipiac St., Bldg. 40, Wallingford CT 06492
  
  
 ---------------------------------------------------------------
 Warning -- This program may not be used in any manner that
 competes with the business of Gaussian, Inc. or will provide
 assistance to any competitor of Gaussian, Inc.  The licensee
 of this program is prohibited from giving any competitor of
 Gaussian, Inc. access to this program.  By using this program,
 the user acknowledges that Gaussian, Inc. is engaged in the
 business of creating and licensing software in the field of
 computational chemistry and represents and warrants to the
 licensee that it is not a competitor of Gaussian, Inc. and that
 it will not use this program in any manner prohibited above.
 ---------------------------------------------------------------
  

 Cite this work as:
 Gaussian 09, Revision A.02,
 M. J. Frisch, G. W. Trucks, H. B. Schlegel, G. E. Scuseria, 
 M. A. Robb, J. R. Cheeseman, G. Scalmani, V. Barone, B. Mennucci, 
 G. A. Petersson, H. Nakatsuji, M. Caricato, X. Li, H. P. Hratchian, 
 A. F. Izmaylov, J. Bloino, G. Zheng, J. L. Sonnenberg, M. Hada, 
 M. Ehara, K. Toyota, R. Fukuda, J. Hasegawa, M. Ishida, T. Nakajima, 
 Y. Honda, O. Kitao, H. Nakai, T. Vreven, J. A. Montgomery, Jr., 
 J. E. Peralta, F. Ogliaro, M. Bearpark, J. J. Heyd, E. Brothers, 
 K. N. Kudin, V. N. Staroverov, R. Kobayashi, J. Normand, 
 K. Raghavachari, A. Rendell, J. C. Burant, S. S. Iyengar, J. Tomasi, 
 M. Cossi, N. Rega, J. M. Millam, M. Klene, J. E. Knox, J. B. Cross, 
 V. Bakken, C. Adamo, J. Jaramillo, R. Gomperts, R. E. Stratmann, 
 O. Yazyev, A. J. Austin, R. Cammi, C. Pomelli, J. W. Ochterski, 
 R. L. Martin, K. Morokuma, V. G. Zakrzewski, G. A. Voth, 
 P. Salvador, J. J. Dannenberg, S. Dapprich, A. D. Daniels, 
 O. Farkas, J. B. Foresman, J. V. Ortiz, J. Cioslowski, 
 and D. J. Fox, Gaussian, Inc., Wallingford CT, 2009.
 
 ******************************************
 Gaussian 09:  EM64L-G09RevA.02 11-Jun-2009
                 6-Dec-2019 
 ******************************************
 %chk=conf18
 ------------------------------------------------------------
 #HF/6-31G* SCF=tight Test Pop=MK iop(6/33=2) iop(6/42=6) opt
 ------------------------------------------------------------
 1/18=20,19=15,38=1/1,3;
 2/9=110,12=2,17=6,18=5,40=1/2;
 3/5=1,6=6,7=1,11=9,16=1,25=1,30=1,71=1/1,2,3;
 4//1;
 5/5=2,32=2,38=5/2;
 6/7=2,8=2,9=2,10=2,15=8,20=1,28=1,33=2,42=6/1,2;
 7//1,2,3,16;
 1/18=20,19=15/3(2);
 2/9=110/2;
 99//99;
 2/9=110/2;
 3/5=1,6=6,7=1,11=9,16=1,25=1,30=1,71=1/1,2,3;
 4/5=5,16=3/1;
 5/5=2,32=2,38=5/2;
 7//1,2,3,16;
 1/18=20,19=15/3(-5);
 2/9=110/2;
 6/7=2,8=2,9=2,10=2,15=8,19=2,20=1,28=1,33=2,42=6/1,2;
 99/9=1/99;
 ---------------------
 remark line goes here
 ---------------------
 Symbolic Z-matrix:
 Charge =  0 Multiplicity = 1
 C                    -5.099    -3.381    -2.401 
 N                    -5.019    -2.064    -1.818 
 C                    -4.753    -1.917    -0.47 
 O                    -4.416    -2.872     0.234 
 C                    -4.755    -0.453     0.077 
 C                    -5.964     0.353    -0.438 
 C                    -3.471     0.276    -0.418 
 C                    -2.138    -0.381    -0.018 
 C                    -0.917     0.312    -0.634 
 C                    -0.73      1.724    -0.156 
 C                     0.088     2.145     0.823 
 C                     0.964     1.297     1.704 
 C                     2.459     1.56      1.489 
 C                     2.945     1.114     0.101 
 C                     4.479     1.228    -0.152 
 C                     4.966     2.668     0.066 
 N                     4.698     0.812    -1.568 
 C                     5.952     0.767    -2.141 
 C                     5.937     0.61     -3.638 
 O                     6.996     0.826    -1.505 
 C                     5.194     0.25      0.834 
 O                     5.601     0.595     1.941 
 N                     5.153    -1.078     0.437 
 C                     5.862    -2.076     1.194 
 N                    -4.733    -0.538     1.555 
 C                    -5.848    -0.847     2.308 
 C                    -5.532    -1.14      3.752 
 O                    -6.994    -0.897     1.878 
 H                    -4.244    -3.985    -2.087 
 H                    -6.025    -3.858    -2.068 
 H                    -5.104    -3.28     -3.489 
 H                    -5.521    -1.324    -2.291 
 H                    -6.888    -0.233    -0.42 
 H                    -6.119     1.259     0.159 
 H                    -5.826     0.671    -1.478 
 H                    -3.497     0.352    -1.513 
 H                    -3.487     1.303    -0.031 
 H                    -2.126    -1.426    -0.349 
 H                    -2.03     -0.39      1.072 
 H                    -0.024    -0.287    -0.424 
 H                    -1.01      0.326    -1.727 
 H                    -1.317     2.478    -0.68 
 H                     0.111     3.213     1.04 
 H                     0.714     1.535     2.746 
 H                     0.755     0.23      1.583 
 H                     2.661     2.627     1.637 
 H                     3.007     1.018     2.267 
 H                     2.63      0.074    -0.063 
 H                     2.422     1.709    -0.661 
 H                     6.038     2.767    -0.135 
 H                     4.443     3.364    -0.599 
 H                     4.817     3.003     1.097 
 H                     3.941     1.033    -2.203 
 H                     6.662    -0.158    -3.924 
 H                     6.208     1.563    -4.1 
 H                     4.953     0.302    -4.003 
 H                     5.077    -1.21     -0.564 
 H                     5.577    -3.062     0.821 
 H                     5.61     -1.991     2.255 
 H                     6.936    -1.923     1.063 
 H                    -3.891    -0.964     1.922 
 H                    -6.304    -0.695     4.385 
 H                    -5.51     -2.222     3.901 
 H                    -4.567    -0.715     4.043 
 

 GradGradGradGradGradGradGradGradGradGradGradGradGradGradGradGradGradGrad
 Berny optimization.
 Initialization pass.
                           ----------------------------
                           !    Initial Parameters    !
                           ! (Angstroms and Degrees)  !
 --------------------------                            --------------------------
 ! Name  Definition              Value          Derivative Info.                !
 --------------------------------------------------------------------------------
 ! R1    R(1,2)                  1.4425         estimate D2E/DX2                !
 ! R2    R(1,29)                 1.0929         estimate D2E/DX2                !
 ! R3    R(1,30)                 1.0936         estimate D2E/DX2                !
 ! R4    R(1,31)                 1.0927         estimate D2E/DX2                !
 ! R5    R(2,3)                  1.3818         estimate D2E/DX2                !
 ! R6    R(2,32)                 1.0116         estimate D2E/DX2                !
 ! R7    R(3,4)                  1.2334         estimate D2E/DX2                !
 ! R8    R(3,5)                  1.5629         estimate D2E/DX2                !
 ! R9    R(5,6)                  1.5416         estimate D2E/DX2                !
 ! R10   R(5,7)                  1.5573         estimate D2E/DX2                !
 ! R11   R(5,25)                 1.4806         estimate D2E/DX2                !
 ! R12   R(6,33)                 1.0943         estimate D2E/DX2                !
 ! R13   R(6,34)                 1.096          estimate D2E/DX2                !
 ! R14   R(6,35)                 1.0963         estimate D2E/DX2                !
 ! R15   R(7,8)                  1.539          estimate D2E/DX2                !
 ! R16   R(7,36)                 1.0979         estimate D2E/DX2                !
 ! R17   R(7,37)                 1.0976         estimate D2E/DX2                !
 ! R18   R(8,9)                  1.5331         estimate D2E/DX2                !
 ! R19   R(8,38)                 1.0962         estimate D2E/DX2                !
 ! R20   R(8,39)                 1.0954         estimate D2E/DX2                !
 ! R21   R(9,10)                 1.5024         estimate D2E/DX2                !
 ! R22   R(9,40)                 1.0956         estimate D2E/DX2                !
 ! R23   R(9,41)                 1.097          estimate D2E/DX2                !
 ! R24   R(10,11)                1.3434         estimate D2E/DX2                !
 ! R25   R(10,42)                1.0898         estimate D2E/DX2                !
 ! R26   R(11,12)                1.5042         estimate D2E/DX2                !
 ! R27   R(11,43)                1.0901         estimate D2E/DX2                !
 ! R28   R(12,13)                1.5331         estimate D2E/DX2                !
 ! R29   R(12,44)                1.0977         estimate D2E/DX2                !
 ! R30   R(12,45)                1.094          estimate D2E/DX2                !
 ! R31   R(13,14)                1.5368         estimate D2E/DX2                !
 ! R32   R(13,46)                1.096          estimate D2E/DX2                !
 ! R33   R(13,47)                1.0951         estimate D2E/DX2                !
 ! R34   R(14,15)                1.5589         estimate D2E/DX2                !
 ! R35   R(14,48)                1.099          estimate D2E/DX2                !
 ! R36   R(14,49)                1.0992         estimate D2E/DX2                !
 ! R37   R(15,16)                1.5357         estimate D2E/DX2                !
 ! R38   R(15,17)                1.492          estimate D2E/DX2                !
 ! R39   R(15,21)                1.562          estimate D2E/DX2                !
 ! R40   R(16,50)                1.0952         estimate D2E/DX2                !
 ! R41   R(16,51)                1.0955         estimate D2E/DX2                !
 ! R42   R(16,52)                1.0943         estimate D2E/DX2                !
 ! R43   R(17,18)                1.3794         estimate D2E/DX2                !
 ! R44   R(17,53)                1.0125         estimate D2E/DX2                !
 ! R45   R(18,19)                1.5053         estimate D2E/DX2                !
 ! R46   R(18,20)                1.2239         estimate D2E/DX2                !
 ! R47   R(19,54)                1.0942         estimate D2E/DX2                !
 ! R48   R(19,55)                1.0932         estimate D2E/DX2                !
 ! R49   R(19,56)                1.0938         estimate D2E/DX2                !
 ! R50   R(21,22)                1.2289         estimate D2E/DX2                !
 ! R51   R(21,23)                1.3867         estimate D2E/DX2                !
 ! R52   R(23,24)                1.4394         estimate D2E/DX2                !
 ! R53   R(23,57)                1.0125         estimate D2E/DX2                !
 ! R54   R(24,58)                1.092          estimate D2E/DX2                !
 ! R55   R(24,59)                1.0938         estimate D2E/DX2                !
 ! R56   R(24,60)                1.0927         estimate D2E/DX2                !
 ! R57   R(25,26)                1.3805         estimate D2E/DX2                !
 ! R58   R(25,61)                1.0125         estimate D2E/DX2                !
 ! R59   R(26,27)                1.5069         estimate D2E/DX2                !
 ! R60   R(26,28)                1.225          estimate D2E/DX2                !
 ! R61   R(27,62)                1.093          estimate D2E/DX2                !
 ! R62   R(27,63)                1.0924         estimate D2E/DX2                !
 ! R63   R(27,64)                1.0939         estimate D2E/DX2                !
 ! A1    A(2,1,29)             110.1862         estimate D2E/DX2                !
 ! A2    A(2,1,30)             108.7919         estimate D2E/DX2                !
 ! A3    A(2,1,31)             108.5596         estimate D2E/DX2                !
 ! A4    A(29,1,30)            109.5054         estimate D2E/DX2                !
 ! A5    A(29,1,31)            109.9219         estimate D2E/DX2                !
 ! A6    A(30,1,31)            109.8552         estimate D2E/DX2                !
 ! A7    A(1,2,3)              120.1369         estimate D2E/DX2                !
 ! A8    A(1,2,32)             116.8321         estimate D2E/DX2                !
 ! A9    A(3,2,32)             118.2835         estimate D2E/DX2                !
 ! A10   A(2,3,4)              121.8059         estimate D2E/DX2                !
 ! A11   A(2,3,5)              116.1572         estimate D2E/DX2                !
 ! A12   A(4,3,5)              121.7285         estimate D2E/DX2                !
 ! A13   A(3,5,6)              111.9527         estimate D2E/DX2                !
 ! A14   A(3,5,7)              109.0387         estimate D2E/DX2                !
 ! A15   A(3,5,25)             107.1928         estimate D2E/DX2                !
 ! A16   A(6,5,7)              107.1987         estimate D2E/DX2                !
 ! A17   A(6,5,25)             112.0335         estimate D2E/DX2                !
 ! A18   A(7,5,25)             109.3857         estimate D2E/DX2                !
 ! A19   A(5,6,33)             112.1311         estimate D2E/DX2                !
 ! A20   A(5,6,34)             111.1695         estimate D2E/DX2                !
 ! A21   A(5,6,35)             111.7073         estimate D2E/DX2                !
 ! A22   A(33,6,34)            108.3178         estimate D2E/DX2                !
 ! A23   A(33,6,35)            106.0953         estimate D2E/DX2                !
 ! A24   A(34,6,35)            107.1433         estimate D2E/DX2                !
 ! A25   A(5,7,8)              115.575          estimate D2E/DX2                !
 ! A26   A(5,7,36)             109.262          estimate D2E/DX2                !
 ! A27   A(5,7,37)             108.2954         estimate D2E/DX2                !
 ! A28   A(8,7,36)             108.0154         estimate D2E/DX2                !
 ! A29   A(8,7,37)             108.6884         estimate D2E/DX2                !
 ! A30   A(36,7,37)            106.6501         estimate D2E/DX2                !
 ! A31   A(7,8,9)              113.1043         estimate D2E/DX2                !
 ! A32   A(7,8,38)             109.7521         estimate D2E/DX2                !
 ! A33   A(7,8,39)             110.3369         estimate D2E/DX2                !
 ! A34   A(9,8,38)             107.5087         estimate D2E/DX2                !
 ! A35   A(9,8,39)             108.966          estimate D2E/DX2                !
 ! A36   A(38,8,39)            106.9508         estimate D2E/DX2                !
 ! A37   A(8,9,10)             113.3351         estimate D2E/DX2                !
 ! A38   A(8,9,40)             108.9647         estimate D2E/DX2                !
 ! A39   A(8,9,41)             109.7893         estimate D2E/DX2                !
 ! A40   A(10,9,40)            110.573          estimate D2E/DX2                !
 ! A41   A(10,9,41)            108.3937         estimate D2E/DX2                !
 ! A42   A(40,9,41)            105.4884         estimate D2E/DX2                !
 ! A43   A(9,10,11)            127.0248         estimate D2E/DX2                !
 ! A44   A(9,10,42)            115.4817         estimate D2E/DX2                !
 ! A45   A(11,10,42)           117.4866         estimate D2E/DX2                !
 ! A46   A(10,11,12)           127.2102         estimate D2E/DX2                !
 ! A47   A(10,11,43)           117.707          estimate D2E/DX2                !
 ! A48   A(12,11,43)           115.0532         estimate D2E/DX2                !
 ! A49   A(11,12,13)           112.8951         estimate D2E/DX2                !
 ! A50   A(11,12,44)           107.5244         estimate D2E/DX2                !
 ! A51   A(11,12,45)           111.9506         estimate D2E/DX2                !
 ! A52   A(13,12,44)           108.5433         estimate D2E/DX2                !
 ! A53   A(13,12,45)           109.7611         estimate D2E/DX2                !
 ! A54   A(44,12,45)           105.8401         estimate D2E/DX2                !
 ! A55   A(12,13,14)           112.6601         estimate D2E/DX2                !
 ! A56   A(12,13,46)           109.1352         estimate D2E/DX2                !
 ! A57   A(12,13,47)           107.6634         estimate D2E/DX2                !
 ! A58   A(14,13,46)           110.2563         estimate D2E/DX2                !
 ! A59   A(14,13,47)           109.8619         estimate D2E/DX2                !
 ! A60   A(46,13,47)           107.0773         estimate D2E/DX2                !
 ! A61   A(13,14,15)           115.8844         estimate D2E/DX2                !
 ! A62   A(13,14,48)           108.5895         estimate D2E/DX2                !
 ! A63   A(13,14,49)           108.5759         estimate D2E/DX2                !
 ! A64   A(15,14,48)           109.0893         estimate D2E/DX2                !
 ! A65   A(15,14,49)           108.4281         estimate D2E/DX2                !
 ! A66   A(48,14,49)           105.809          estimate D2E/DX2                !
 ! A67   A(14,15,16)           110.9525         estimate D2E/DX2                !
 ! A68   A(14,15,17)           106.1454         estimate D2E/DX2                !
 ! A69   A(14,15,21)           107.5897         estimate D2E/DX2                !
 ! A70   A(16,15,17)           110.4645         estimate D2E/DX2                !
 ! A71   A(16,15,21)           110.6303         estimate D2E/DX2                !
 ! A72   A(17,15,21)           110.9356         estimate D2E/DX2                !
 ! A73   A(15,16,50)           111.6619         estimate D2E/DX2                !
 ! A74   A(15,16,51)           110.9877         estimate D2E/DX2                !
 ! A75   A(15,16,52)           112.1877         estimate D2E/DX2                !
 ! A76   A(50,16,51)           107.3652         estimate D2E/DX2                !
 ! A77   A(50,16,52)           106.1729         estimate D2E/DX2                !
 ! A78   A(51,16,52)           108.2054         estimate D2E/DX2                !
 ! A79   A(15,17,18)           122.463          estimate D2E/DX2                !
 ! A80   A(15,17,53)           115.1266         estimate D2E/DX2                !
 ! A81   A(18,17,53)           115.2317         estimate D2E/DX2                !
 ! A82   A(17,18,19)           114.0442         estimate D2E/DX2                !
 ! A83   A(17,18,20)           123.9186         estimate D2E/DX2                !
 ! A84   A(19,18,20)           122.0272         estimate D2E/DX2                !
 ! A85   A(18,19,54)           109.0593         estimate D2E/DX2                !
 ! A86   A(18,19,55)           109.0802         estimate D2E/DX2                !
 ! A87   A(18,19,56)           111.7282         estimate D2E/DX2                !
 ! A88   A(54,19,55)           109.7038         estimate D2E/DX2                !
 ! A89   A(54,19,56)           108.1327         estimate D2E/DX2                !
 ! A90   A(55,19,56)           109.1151         estimate D2E/DX2                !
 ! A91   A(15,21,22)           122.9876         estimate D2E/DX2                !
 ! A92   A(15,21,23)           113.914          estimate D2E/DX2                !
 ! A93   A(22,21,23)           122.4499         estimate D2E/DX2                !
 ! A94   A(21,23,24)           119.9267         estimate D2E/DX2                !
 ! A95   A(21,23,57)           114.2116         estimate D2E/DX2                !
 ! A96   A(24,23,57)           117.8091         estimate D2E/DX2                !
 ! A97   A(23,24,58)           108.5328         estimate D2E/DX2                !
 ! A98   A(23,24,59)           110.0466         estimate D2E/DX2                !
 ! A99   A(23,24,60)           108.9055         estimate D2E/DX2                !
 ! A100  A(58,24,59)           109.9592         estimate D2E/DX2                !
 ! A101  A(58,24,60)           109.9976         estimate D2E/DX2                !
 ! A102  A(59,24,60)           109.3807         estimate D2E/DX2                !
 ! A103  A(5,25,26)            123.0488         estimate D2E/DX2                !
 ! A104  A(5,25,61)            113.4749         estimate D2E/DX2                !
 ! A105  A(26,25,61)           112.321          estimate D2E/DX2                !
 ! A106  A(25,26,27)           113.3805         estimate D2E/DX2                !
 ! A107  A(25,26,28)           124.9775         estimate D2E/DX2                !
 ! A108  A(27,26,28)           121.6402         estimate D2E/DX2                !
 ! A109  A(26,27,62)           109.1277         estimate D2E/DX2                !
 ! A110  A(26,27,63)           109.117          estimate D2E/DX2                !
 ! A111  A(26,27,64)           111.3689         estimate D2E/DX2                !
 ! A112  A(62,27,63)           109.784          estimate D2E/DX2                !
 ! A113  A(62,27,64)           108.1102         estimate D2E/DX2                !
 ! A114  A(63,27,64)           109.3156         estimate D2E/DX2                !
 ! D1    D(29,1,2,3)           -47.7919         estimate D2E/DX2                !
 ! D2    D(29,1,2,32)          157.0237         estimate D2E/DX2                !
 ! D3    D(30,1,2,3)            72.2662         estimate D2E/DX2                !
 ! D4    D(30,1,2,32)          -82.9181         estimate D2E/DX2                !
 ! D5    D(31,1,2,3)          -168.2159         estimate D2E/DX2                !
 ! D6    D(31,1,2,32)           36.5998         estimate D2E/DX2                !
 ! D7    D(1,2,3,4)              9.1054         estimate D2E/DX2                !
 ! D8    D(1,2,3,5)           -177.1695         estimate D2E/DX2                !
 ! D9    D(32,2,3,4)           163.9366         estimate D2E/DX2                !
 ! D10   D(32,2,3,5)           -22.3382         estimate D2E/DX2                !
 ! D11   D(2,3,5,6)             45.2557         estimate D2E/DX2                !
 ! D12   D(2,3,5,7)            -73.1911         estimate D2E/DX2                !
 ! D13   D(2,3,5,25)           168.4931         estimate D2E/DX2                !
 ! D14   D(4,3,5,6)           -141.0139         estimate D2E/DX2                !
 ! D15   D(4,3,5,7)            100.5394         estimate D2E/DX2                !
 ! D16   D(4,3,5,25)           -17.7765         estimate D2E/DX2                !
 ! D17   D(3,5,6,33)            42.2834         estimate D2E/DX2                !
 ! D18   D(3,5,6,34)           163.7051         estimate D2E/DX2                !
 ! D19   D(3,5,6,35)           -76.6656         estimate D2E/DX2                !
 ! D20   D(7,5,6,33)           161.8168         estimate D2E/DX2                !
 ! D21   D(7,5,6,34)           -76.7615         estimate D2E/DX2                !
 ! D22   D(7,5,6,35)            42.8679         estimate D2E/DX2                !
 ! D23   D(25,5,6,33)          -78.1762         estimate D2E/DX2                !
 ! D24   D(25,5,6,34)           43.2455         estimate D2E/DX2                !
 ! D25   D(25,5,6,35)          162.8749         estimate D2E/DX2                !
 ! D26   D(3,5,7,8)            -58.0786         estimate D2E/DX2                !
 ! D27   D(3,5,7,36)            63.9565         estimate D2E/DX2                !
 ! D28   D(3,5,7,37)           179.7555         estimate D2E/DX2                !
 ! D29   D(6,5,7,8)           -179.4645         estimate D2E/DX2                !
 ! D30   D(6,5,7,36)           -57.4294         estimate D2E/DX2                !
 ! D31   D(6,5,7,37)            58.3696         estimate D2E/DX2                !
 ! D32   D(25,5,7,8)            58.8521         estimate D2E/DX2                !
 ! D33   D(25,5,7,36)         -179.1128         estimate D2E/DX2                !
 ! D34   D(25,5,7,37)          -63.3138         estimate D2E/DX2                !
 ! D35   D(3,5,25,26)          -77.088          estimate D2E/DX2                !
 ! D36   D(3,5,25,61)           63.8576         estimate D2E/DX2                !
 ! D37   D(6,5,25,26)           46.0996         estimate D2E/DX2                !
 ! D38   D(6,5,25,61)         -172.9548         estimate D2E/DX2                !
 ! D39   D(7,5,25,26)          164.8216         estimate D2E/DX2                !
 ! D40   D(7,5,25,61)          -54.2328         estimate D2E/DX2                !
 ! D41   D(5,7,8,9)            175.0318         estimate D2E/DX2                !
 ! D42   D(5,7,8,38)            54.9838         estimate D2E/DX2                !
 ! D43   D(5,7,8,39)           -62.6267         estimate D2E/DX2                !
 ! D44   D(36,7,8,9)            52.3332         estimate D2E/DX2                !
 ! D45   D(36,7,8,38)          -67.7148         estimate D2E/DX2                !
 ! D46   D(36,7,8,39)          174.6747         estimate D2E/DX2                !
 ! D47   D(37,7,8,9)           -63.0122         estimate D2E/DX2                !
 ! D48   D(37,7,8,38)          176.9398         estimate D2E/DX2                !
 ! D49   D(37,7,8,39)           59.3293         estimate D2E/DX2                !
 ! D50   D(7,8,9,10)            64.3075         estimate D2E/DX2                !
 ! D51   D(7,8,9,40)          -172.1253         estimate D2E/DX2                !
 ! D52   D(7,8,9,41)           -57.0545         estimate D2E/DX2                !
 ! D53   D(38,8,9,10)         -174.3699         estimate D2E/DX2                !
 ! D54   D(38,8,9,40)          -50.8027         estimate D2E/DX2                !
 ! D55   D(38,8,9,41)           64.2681         estimate D2E/DX2                !
 ! D56   D(39,8,9,10)          -58.7959         estimate D2E/DX2                !
 ! D57   D(39,8,9,40)           64.7713         estimate D2E/DX2                !
 ! D58   D(39,8,9,41)          179.8421         estimate D2E/DX2                !
 ! D59   D(8,9,10,11)           97.466          estimate D2E/DX2                !
 ! D60   D(8,9,10,42)          -83.526          estimate D2E/DX2                !
 ! D61   D(40,9,10,11)         -25.2152         estimate D2E/DX2                !
 ! D62   D(40,9,10,42)         153.7928         estimate D2E/DX2                !
 ! D63   D(41,9,10,11)        -140.3914         estimate D2E/DX2                !
 ! D64   D(41,9,10,42)          38.6166         estimate D2E/DX2                !
 ! D65   D(9,10,11,12)          -2.6687         estimate D2E/DX2                !
 ! D66   D(9,10,11,43)         179.4223         estimate D2E/DX2                !
 ! D67   D(42,10,11,12)        178.3407         estimate D2E/DX2                !
 ! D68   D(42,10,11,43)          0.4316         estimate D2E/DX2                !
 ! D69   D(10,11,12,13)        114.9982         estimate D2E/DX2                !
 ! D70   D(10,11,12,44)       -125.3075         estimate D2E/DX2                !
 ! D71   D(10,11,12,45)         -9.4667         estimate D2E/DX2                !
 ! D72   D(43,11,12,13)        -67.0452         estimate D2E/DX2                !
 ! D73   D(43,11,12,44)         52.6491         estimate D2E/DX2                !
 ! D74   D(43,11,12,45)        168.4899         estimate D2E/DX2                !
 ! D75   D(11,12,13,14)        -67.0784         estimate D2E/DX2                !
 ! D76   D(11,12,13,46)         55.7402         estimate D2E/DX2                !
 ! D77   D(11,12,13,47)        171.6339         estimate D2E/DX2                !
 ! D78   D(44,12,13,14)        173.8161         estimate D2E/DX2                !
 ! D79   D(44,12,13,46)        -63.3653         estimate D2E/DX2                !
 ! D80   D(44,12,13,47)         52.5284         estimate D2E/DX2                !
 ! D81   D(45,12,13,14)         58.5753         estimate D2E/DX2                !
 ! D82   D(45,12,13,46)       -178.6061         estimate D2E/DX2                !
 ! D83   D(45,12,13,47)        -62.7124         estimate D2E/DX2                !
 ! D84   D(12,13,14,15)       -174.705          estimate D2E/DX2                !
 ! D85   D(12,13,14,48)        -51.5627         estimate D2E/DX2                !
 ! D86   D(12,13,14,49)         63.0358         estimate D2E/DX2                !
 ! D87   D(46,13,14,15)         63.1063         estimate D2E/DX2                !
 ! D88   D(46,13,14,48)       -173.7514         estimate D2E/DX2                !
 ! D89   D(46,13,14,49)        -59.1529         estimate D2E/DX2                !
 ! D90   D(47,13,14,15)        -54.6773         estimate D2E/DX2                !
 ! D91   D(47,13,14,48)         68.465          estimate D2E/DX2                !
 ! D92   D(47,13,14,49)       -176.9365         estimate D2E/DX2                !
 ! D93   D(13,14,15,16)        -57.1158         estimate D2E/DX2                !
 ! D94   D(13,14,15,17)       -177.1558         estimate D2E/DX2                !
 ! D95   D(13,14,15,21)         64.0274         estimate D2E/DX2                !
 ! D96   D(48,14,15,16)       -179.9957         estimate D2E/DX2                !
 ! D97   D(48,14,15,17)         59.9643         estimate D2E/DX2                !
 ! D98   D(48,14,15,21)        -58.8525         estimate D2E/DX2                !
 ! D99   D(49,14,15,16)         65.2216         estimate D2E/DX2                !
 ! D100  D(49,14,15,17)        -54.8185         estimate D2E/DX2                !
 ! D101  D(49,14,15,21)       -173.6352         estimate D2E/DX2                !
 ! D102  D(14,15,16,50)       -178.465          estimate D2E/DX2                !
 ! D103  D(14,15,16,51)        -58.7079         estimate D2E/DX2                !
 ! D104  D(14,15,16,52)         62.4796         estimate D2E/DX2                !
 ! D105  D(17,15,16,50)        -61.0316         estimate D2E/DX2                !
 ! D106  D(17,15,16,51)         58.7255         estimate D2E/DX2                !
 ! D107  D(17,15,16,52)        179.913          estimate D2E/DX2                !
 ! D108  D(21,15,16,50)         62.1993         estimate D2E/DX2                !
 ! D109  D(21,15,16,51)       -178.0436         estimate D2E/DX2                !
 ! D110  D(21,15,16,52)        -56.8561         estimate D2E/DX2                !
 ! D111  D(14,15,17,18)       -178.9049         estimate D2E/DX2                !
 ! D112  D(14,15,17,53)         32.1811         estimate D2E/DX2                !
 ! D113  D(16,15,17,18)         60.7381         estimate D2E/DX2                !
 ! D114  D(16,15,17,53)        -88.1759         estimate D2E/DX2                !
 ! D115  D(21,15,17,18)        -62.3153         estimate D2E/DX2                !
 ! D116  D(21,15,17,53)        148.7706         estimate D2E/DX2                !
 ! D117  D(14,15,21,22)        -92.5595         estimate D2E/DX2                !
 ! D118  D(14,15,21,23)         78.4038         estimate D2E/DX2                !
 ! D119  D(16,15,21,22)         28.7854         estimate D2E/DX2                !
 ! D120  D(16,15,21,23)       -160.2513         estimate D2E/DX2                !
 ! D121  D(17,15,21,22)        151.7431         estimate D2E/DX2                !
 ! D122  D(17,15,21,23)        -37.2935         estimate D2E/DX2                !
 ! D123  D(15,17,18,19)       -167.671          estimate D2E/DX2                !
 ! D124  D(15,17,18,20)         13.4587         estimate D2E/DX2                !
 ! D125  D(53,17,18,19)        -18.7867         estimate D2E/DX2                !
 ! D126  D(53,17,18,20)        162.343          estimate D2E/DX2                !
 ! D127  D(17,18,19,54)       -134.1063         estimate D2E/DX2                !
 ! D128  D(17,18,19,55)        106.0953         estimate D2E/DX2                !
 ! D129  D(17,18,19,56)        -14.6252         estimate D2E/DX2                !
 ! D130  D(20,18,19,54)         44.7879         estimate D2E/DX2                !
 ! D131  D(20,18,19,55)        -75.0105         estimate D2E/DX2                !
 ! D132  D(20,18,19,56)        164.269          estimate D2E/DX2                !
 ! D133  D(15,21,23,24)        175.0863         estimate D2E/DX2                !
 ! D134  D(15,21,23,57)         26.9762         estimate D2E/DX2                !
 ! D135  D(22,21,23,24)        -13.8956         estimate D2E/DX2                !
 ! D136  D(22,21,23,57)       -162.0057         estimate D2E/DX2                !
 ! D137  D(21,23,24,58)        171.0092         estimate D2E/DX2                !
 ! D138  D(21,23,24,59)         50.6404         estimate D2E/DX2                !
 ! D139  D(21,23,24,60)        -69.2509         estimate D2E/DX2                !
 ! D140  D(57,23,24,58)        -41.9971         estimate D2E/DX2                !
 ! D141  D(57,23,24,59)       -162.3658         estimate D2E/DX2                !
 ! D142  D(57,23,24,60)         77.7428         estimate D2E/DX2                !
 ! D143  D(5,25,26,27)         168.6806         estimate D2E/DX2                !
 ! D144  D(5,25,26,28)         -10.8301         estimate D2E/DX2                !
 ! D145  D(61,25,26,27)         27.3423         estimate D2E/DX2                !
 ! D146  D(61,25,26,28)       -152.1684         estimate D2E/DX2                !
 ! D147  D(25,26,27,62)        140.0904         estimate D2E/DX2                !
 ! D148  D(25,26,27,63)        -99.9508         estimate D2E/DX2                !
 ! D149  D(25,26,27,64)         20.8156         estimate D2E/DX2                !
 ! D150  D(28,26,27,62)        -40.3805         estimate D2E/DX2                !
 ! D151  D(28,26,27,63)         79.5783         estimate D2E/DX2                !
 ! D152  D(28,26,27,64)       -159.6553         estimate D2E/DX2                !
 --------------------------------------------------------------------------------
 Trust Radius=3.00D-01 FncErr=1.00D-07 GrdErr=1.00D-07
 Number of steps in this run= 339 maximum allowed number of steps= 384.
 GradGradGradGradGradGradGradGradGradGradGradGradGradGradGradGradGradGrad

 Stoichiometry    C20H36N4O4
 Framework group  C1[X(C20H36N4O4)]
 Deg. of freedom   186
 Full point group                 C1      NOp   1
 Largest Abelian subgroup         C1      NOp   1
 Largest concise Abelian subgroup C1      NOp   1
                         Standard orientation:                         
 ---------------------------------------------------------------------
 Center     Atomic      Atomic             Coordinates (Angstroms)
 Number     Number       Type             X           Y           Z
 ---------------------------------------------------------------------
      1          6           0        5.384180    3.588453    1.300529
      2          7           0        5.135715    2.590326    0.289201
      3          6           0        4.963563    1.267028    0.647967
      4          8           0        4.850628    0.922540    1.826858
      5          6           0        4.768181    0.254598   -0.526477
      6          6           0        5.778536    0.492229   -1.666326
      7          6           0        3.343738    0.442195   -1.127222
      8          6           0        2.177085    0.259093   -0.140342
      9          6           0        0.810325    0.574137   -0.759423
     10          6           0        0.432087   -0.360089   -1.873584
     11          6           0       -0.359056   -1.442501   -1.788249
     12          6           0       -1.004414   -2.002209   -0.550154
     13          6           0       -2.535061   -1.924069   -0.588033
     14          6           0       -3.055373   -0.478728   -0.544178
     15          6           0       -4.602760   -0.315052   -0.449507
     16          6           0       -5.302311   -1.021317   -1.620025
     17          7           0       -4.868103    1.152550   -0.492070
     18          6           0       -6.140933    1.677599   -0.407833
     19          6           0       -6.226277    3.138580   -0.760160
     20          8           0       -7.122828    1.035615   -0.059047
     21          6           0       -5.059472   -0.925505    0.913822
     22          8           0       -5.423394   -2.092901    1.035766
     23          7           0       -4.831815   -0.099375    2.004031
     24          6           0       -5.298610   -0.487619    3.309061
     25          7           0        4.885289   -1.106317    0.044829
     26          6           0        6.095598   -1.683283    0.373427
     27          6           0        5.955585   -2.948216    1.180386
     28          8           0        7.193573   -1.235654    0.065537
     29          1           0        4.671083    3.479168    2.121496
     30          1           0        6.401337    3.459118    1.680737
     31          1           0        5.280584    4.576925    0.846480
     32          1           0        5.465983    2.794651   -0.644880
     33          1           0        6.785302    0.696051   -1.288998
     34          1           0        5.830479   -0.373754   -2.336135
     35          1           0        5.502408    1.358427   -2.278879
     36          1           0        3.264341    1.446240   -1.564333
     37          1           0        3.221294   -0.270773   -1.952714
     38          1           0        2.311173    0.925639    0.719581
     39          1           0        2.164356   -0.764945    0.248282
     40          1           0        0.050295    0.560035    0.029568
     41          1           0        0.807232    1.598948   -1.150890
     42          1           0        0.839238   -0.110630   -2.853207
     43          1           0       -0.540965   -2.010520   -2.700667
     44          1           0       -0.710541   -3.056948   -0.472223
     45          1           0       -0.631841   -1.520486    0.358660
     46          1           0       -2.898481   -2.431011   -1.489217
     47          1           0       -2.917739   -2.483549    0.272137
     48          1           0       -2.586773    0.036668    0.305823
     49          1           0       -2.704721    0.047096   -1.443483
     50          1           0       -6.388921   -0.890771   -1.579759
     51          1           0       -4.960279   -0.621050   -2.580739
     52          1           0       -5.124725   -2.101057   -1.616815
     53          1           0       -4.214654    1.691680   -1.046559
     54          1           0       -6.834958    3.652116   -0.009806
     55          1           0       -6.689949    3.242256   -1.744718
     56          1           0       -5.239079    3.609188   -0.777820
     57          1           0       -4.819576    0.888256    1.781239
     58          1           0       -4.886081    0.205169    4.045549
     59          1           0       -4.975727   -1.508096    3.534500
     60          1           0       -6.390265   -0.441299    3.322861
     61          1           0        4.159830   -1.325708    0.716176
     62          1           0        6.693406   -3.676916    0.834968
     63          1           0        6.126463   -2.720513    2.235071
     64          1           0        4.961359   -3.388648    1.061789
 ---------------------------------------------------------------------
 Rotational constants (GHZ):      0.3008971      0.0505977      0.0485326
 Standard basis: 6-31G(d) (6D, 7F)
 There are   492 symmetry adapted basis functions of A   symmetry.
 Integral buffers will be    131072 words long.
 Raffenetti 1 integral format.
 Two-electron integral symmetry is turned on.
   492 basis functions,   928 primitive gaussians,   492 cartesian basis functions
   108 alpha electrons      108 beta electrons
       nuclear repulsion energy      2644.3601499603 Hartrees.
 NAtoms=   64 NActive=   64 NUniq=   64 SFac= 7.50D-01 NAtFMM=   80 NAOKFM=F Big=T
 One-electron integrals computed using PRISM.
 NBasis=   492 RedAO= T  NBF=   492
 NBsUse=   492 1.00D-06 NBFU=   492
 Harris functional with IExCor=  205 diagonalized for initial guess.
 ExpMin= 1.61D-01 ExpMax= 5.48D+03 ExpMxC= 8.25D+02 IAcc=1 IRadAn=         1 AccDes= 0.00D+00
 HarFok:  IExCor=  205 AccDes= 0.00D+00 IRadAn=         1 IDoV= 1
 ScaDFX=  1.000000  1.000000  1.000000  1.000000
 FoFCou: FMM=F IPFlag=           0 FMFlag=      100000 FMFlg1=           1
         NFxFlg=           0 DoJE=T BraDBF=F KetDBF=T FulRan=T
         Omega=  0.000000  0.000000  1.000000  0.000000  0.000000 ICntrl=     500 IOpCl=  0
         NMat0=    1 NMatS0=    1 NMatT0=    0 NMatD0=    1 NMtDS0=    0 NMtDT0=    0
         I1Cent=           4 NGrid=           0.
 Petite list used in FoFCou.
 Initial guess orbital symmetries:
       Occupied  (A) (A) (A) (A) (A) (A) (A) (A) (A) (A) (A) (A)
                 (A) (A) (A) (A) (A) (A) (A) (A) (A) (A) (A) (A)
                 (A) (A) (A) (A) (A) (A) (A) (A) (A) (A) (A) (A)
                 (A) (A) (A) (A) (A) (A) (A) (A) (A) (A) (A) (A)
                 (A) (A) (A) (A) (A) (A) (A) (A) (A) (A) (A) (A)
                 (A) (A) (A) (A) (A) (A) (A) (A) (A) (A) (A) (A)
                 (A) (A) (A) (A) (A) (A) (A) (A) (A) (A) (A) (A)
                 (A) (A) (A) (A) (A) (A) (A) (A) (A) (A) (A) (A)
                 (A) (A) (A) (A) (A) (A) (A) (A) (A) (A) (A) (A)
       Virtual   (A) (A) (A) (A) (A) (A) (A) (A) (A) (A) (A) (A)
                 (A) (A) (A) (A) (A) (A) (A) (A) (A) (A) (A) (A)
                 (A) (A) (A) (A) (A) (A) (A) (A) (A) (A) (A) (A)
                 (A) (A) (A) (A) (A) (A) (A) (A) (A) (A) (A) (A)
                 (A) (A) (A) (A) (A) (A) (A) (A) (A) (A) (A) (A)
                 (A) (A) (A) (A) (A) (A) (A) (A) (A) (A) (A) (A)
                 (A) (A) (A) (A) (A) (A) (A) (A) (A) (A) (A) (A)
                 (A) (A) (A) (A) (A) (A) (A) (A) (A) (A) (A) (A)
                 (A) (A) (A) (A) (A) (A) (A) (A) (A) (A) (A) (A)
                 (A) (A) (A) (A) (A) (A) (A) (A) (A) (A) (A) (A)
                 (A) (A) (A) (A) (A) (A) (A) (A) (A) (A) (A) (A)
                 (A) (A) (A) (A) (A) (A) (A) (A) (A) (A) (A) (A)
                 (A) (A) (A) (A) (A) (A) (A) (A) (A) (A) (A) (A)
                 (A) (A) (A) (A) (A) (A) (A) (A) (A) (A) (A) (A)
                 (A) (A) (A) (A) (A) (A) (A) (A) (A) (A) (A) (A)
                 (A) (A) (A) (A) (A) (A) (A) (A) (A) (A) (A) (A)
                 (A) (A) (A) (A) (A) (A) (A) (A) (A) (A) (A) (A)
                 (A) (A) (A) (A) (A) (A) (A) (A) (A) (A) (A) (A)
                 (A) (A) (A) (A) (A) (A) (A) (A) (A) (A) (A) (A)
                 (A) (A) (A) (A) (A) (A) (A) (A) (A) (A) (A) (A)
                 (A) (A) (A) (A) (A) (A) (A) (A) (A) (A) (A) (A)
                 (A) (A) (A) (A) (A) (A) (A) (A) (A) (A) (A) (A)
                 (A) (A) (A) (A) (A) (A) (A) (A) (A) (A) (A) (A)
                 (A) (A) (A) (A) (A) (A) (A) (A) (A) (A) (A) (A)
                 (A) (A) (A) (A) (A) (A) (A) (A) (A) (A) (A) (A)
                 (A) (A) (A) (A) (A) (A) (A) (A) (A) (A) (A) (A)
                 (A) (A) (A) (A) (A) (A) (A) (A) (A) (A) (A) (A)
                 (A) (A) (A) (A) (A) (A) (A) (A) (A) (A) (A) (A)
                 (A) (A) (A) (A) (A) (A) (A) (A) (A) (A) (A) (A)
                 (A) (A) (A) (A) (A) (A) (A) (A) (A) (A) (A) (A)
                 (A) (A) (A) (A) (A) (A) (A) (A) (A) (A) (A) (A)
                 (A) (A) (A) (A) (A) (A) (A) (A) (A) (A) (A) (A)
 The electronic state of the initial guess is 1-A.
 Requested convergence on RMS density matrix=1.00D-08 within 128 cycles.
 Requested convergence on MAX density matrix=1.00D-06.
 Requested convergence on             energy=1.00D-06.
 No special actions if energy rises.
 Integral accuracy reduced to 1.0D-05 until final iterations.
 Initial convergence to 1.0D-05 achieved.  Increase integral accuracy.
 SCF Done:  E(RHF) =  -1295.60484962     A.U. after   14 cycles
             Convg  =    0.9112D-08             -V/T =  2.0024

 **********************************************************************

            Population analysis using the SCF density.

 **********************************************************************

 Orbital symmetries:
 BldTbl:  Degeneracy threshold= 1.00D-02
       Occupied  (A) (A) (A) (A) (A) (A) (A) (A) (A) (A) (A) (A)
                 (A) (A) (A) (A) (A) (A) (A) (A) (A) (A) (A) (A)
                 (A) (A) (A) (A) (A) (A) (A) (A) (A) (A) (A) (A)
                 (A) (A) (A) (A) (A) (A) (A) (A) (A) (A) (A) (A)
                 (A) (A) (A) (A) (A) (A) (A) (A) (A) (A) (A) (A)
                 (A) (A) (A) (A) (A) (A) (A) (A) (A) (A) (A) (A)
                 (A) (A) (A) (A) (A) (A) (A) (A) (A) (A) (A) (A)
                 (A) (A) (A) (A) (A) (A) (A) (A) (A) (A) (A) (A)
                 (A) (A) (A) (A) (A) (A) (A) (A) (A) (A) (A) (A)
       Virtual   (A) (A) (A) (A) (A) (A) (A) (A) (A) (A) (A) (A)
                 (A) (A) (A) (A) (A) (A) (A) (A) (A) (A) (A) (A)
                 (A) (A) (A) (A) (A) (A) (A) (A) (A) (A) (A) (A)
                 (A) (A) (A) (A) (A) (A) (A) (A) (A) (A) (A) (A)
                 (A) (A) (A) (A) (A) (A) (A) (A) (A) (A) (A) (A)
                 (A) (A) (A) (A) (A) (A) (A) (A) (A) (A) (A) (A)
                 (A) (A) (A) (A) (A) (A) (A) (A) (A) (A) (A) (A)
                 (A) (A) (A) (A) (A) (A) (A) (A) (A) (A) (A) (A)
                 (A) (A) (A) (A) (A) (A) (A) (A) (A) (A) (A) (A)
                 (A) (A) (A) (A) (A) (A) (A) (A) (A) (A) (A) (A)
                 (A) (A) (A) (A) (A) (A) (A) (A) (A) (A) (A) (A)
                 (A) (A) (A) (A) (A) (A) (A) (A) (A) (A) (A) (A)
                 (A) (A) (A) (A) (A) (A) (A) (A) (A) (A) (A) (A)
                 (A) (A) (A) (A) (A) (A) (A) (A) (A) (A) (A) (A)
                 (A) (A) (A) (A) (A) (A) (A) (A) (A) (A) (A) (A)
                 (A) (A) (A) (A) (A) (A) (A) (A) (A) (A) (A) (A)
                 (A) (A) (A) (A) (A) (A) (A) (A) (A) (A) (A) (A)
                 (A) (A) (A) (A) (A) (A) (A) (A) (A) (A) (A) (A)
                 (A) (A) (A) (A) (A) (A) (A) (A) (A) (A) (A) (A)
                 (A) (A) (A) (A) (A) (A) (A) (A) (A) (A) (A) (A)
                 (A) (A) (A) (A) (A) (A) (A) (A) (A) (A) (A) (A)
                 (A) (A) (A) (A) (A) (A) (A) (A) (A) (A) (A) (A)
                 (A) (A) (A) (A) (A) (A) (A) (A) (A) (A) (A) (A)
                 (A) (A) (A) (A) (A) (A) (A) (A) (A) (A) (A) (A)
                 (A) (A) (A) (A) (A) (A) (A) (A) (A) (A) (A) (A)
                 (A) (A) (A) (A) (A) (A) (A) (A) (A) (A) (A) (A)
                 (A) (A) (A) (A) (A) (A) (A) (A) (A) (A) (A) (A)
                 (A) (A) (A) (A) (A) (A) (A) (A) (A) (A) (A) (A)
                 (A) (A) (A) (A) (A) (A) (A) (A) (A) (A) (A) (A)
                 (A) (A) (A) (A) (A) (A) (A) (A) (A) (A) (A) (A)
                 (A) (A) (A) (A) (A) (A) (A) (A) (A) (A) (A) (A)
                 (A) (A) (A) (A) (A) (A) (A) (A) (A) (A) (A) (A)
 The electronic state is 1-A.
 Alpha  occ. eigenvalues --  -20.53989 -20.53335 -20.52471 -20.52302 -15.60492
 Alpha  occ. eigenvalues --  -15.59309 -15.58434 -15.57577 -11.36700 -11.35648
 Alpha  occ. eigenvalues --  -11.35093 -11.34968 -11.30015 -11.29974 -11.26257
 Alpha  occ. eigenvalues --  -11.24985 -11.24958 -11.24323 -11.24219 -11.23599
 Alpha  occ. eigenvalues --  -11.23541 -11.23400 -11.23330 -11.23164 -11.23073
 Alpha  occ. eigenvalues --  -11.22895 -11.22790 -11.21568  -1.39011  -1.38039
 Alpha  occ. eigenvalues --   -1.36881  -1.36790  -1.24770  -1.23067  -1.22789
 Alpha  occ. eigenvalues --   -1.21192  -1.11452  -1.09606  -1.07460  -1.04751
 Alpha  occ. eigenvalues --   -1.01348  -0.99379  -0.98752  -0.95215  -0.94893
 Alpha  occ. eigenvalues --   -0.94735  -0.91972  -0.86933  -0.85610  -0.82744
 Alpha  occ. eigenvalues --   -0.81403  -0.79274  -0.78880  -0.75975  -0.75800
 Alpha  occ. eigenvalues --   -0.72675  -0.71901  -0.70271  -0.69048  -0.67867
 Alpha  occ. eigenvalues --   -0.65998  -0.65388  -0.64839  -0.64323  -0.63658
 Alpha  occ. eigenvalues --   -0.63295  -0.62191  -0.61904  -0.61636  -0.61421
 Alpha  occ. eigenvalues --   -0.60558  -0.60034  -0.59494  -0.58683  -0.58525
 Alpha  occ. eigenvalues --   -0.57909  -0.57548  -0.57009  -0.56682  -0.55767
 Alpha  occ. eigenvalues --   -0.55637  -0.55165  -0.54901  -0.54034  -0.53640
 Alpha  occ. eigenvalues --   -0.52861  -0.52624  -0.52237  -0.51799  -0.51340
 Alpha  occ. eigenvalues --   -0.51126  -0.50459  -0.50147  -0.49366  -0.48813
 Alpha  occ. eigenvalues --   -0.48140  -0.47711  -0.46793  -0.45579  -0.43022
 Alpha  occ. eigenvalues --   -0.42460  -0.41999  -0.41210  -0.39693  -0.39330
 Alpha  occ. eigenvalues --   -0.38878  -0.37825  -0.34873
 Alpha virt. eigenvalues --    0.16361   0.17573   0.18683   0.19205   0.19370
 Alpha virt. eigenvalues --    0.19936   0.20634   0.22291   0.22960   0.23658
 Alpha virt. eigenvalues --    0.24351   0.24864   0.25616   0.25738   0.26559
 Alpha virt. eigenvalues --    0.27438   0.27712   0.28588   0.28923   0.29199
 Alpha virt. eigenvalues --    0.29569   0.29818   0.30411   0.30611   0.30917
 Alpha virt. eigenvalues --    0.31522   0.31876   0.32117   0.32187   0.32646
 Alpha virt. eigenvalues --    0.32864   0.33073   0.33306   0.33954   0.34074
 Alpha virt. eigenvalues --    0.34742   0.34995   0.35315   0.35749   0.36413
 Alpha virt. eigenvalues --    0.37014   0.37158   0.38313   0.38493   0.39551
 Alpha virt. eigenvalues --    0.39877   0.40852   0.41573   0.41764   0.42533
 Alpha virt. eigenvalues --    0.43276   0.43885   0.44587   0.45164   0.45922
 Alpha virt. eigenvalues --    0.46830   0.47405   0.48730   0.50193   0.51738
 Alpha virt. eigenvalues --    0.52866   0.55210   0.55847   0.58117   0.59496
 Alpha virt. eigenvalues --    0.60903   0.61243   0.61811   0.68810   0.69838
 Alpha virt. eigenvalues --    0.70306   0.70828   0.71009   0.72255   0.73279
 Alpha virt. eigenvalues --    0.73484   0.74130   0.75006   0.75290   0.75967
 Alpha virt. eigenvalues --    0.76196   0.76277   0.76586   0.76955   0.78074
 Alpha virt. eigenvalues --    0.79364   0.80500   0.80581   0.81837   0.82750
 Alpha virt. eigenvalues --    0.83094   0.83388   0.83768   0.84904   0.85663
 Alpha virt. eigenvalues --    0.86608   0.87325   0.88108   0.88490   0.89237
 Alpha virt. eigenvalues --    0.89805   0.90970   0.91568   0.92320   0.92469
 Alpha virt. eigenvalues --    0.92685   0.94458   0.96208   0.96538   0.97390
 Alpha virt. eigenvalues --    0.97715   0.97867   0.98747   0.98929   0.99816
 Alpha virt. eigenvalues --    1.00135   1.00329   1.01571   1.01745   1.02856
 Alpha virt. eigenvalues --    1.03339   1.04032   1.04254   1.06065   1.06624
 Alpha virt. eigenvalues --    1.07344   1.08047   1.09798   1.10530   1.11194
 Alpha virt. eigenvalues --    1.11650   1.12013   1.12211   1.12321   1.12952
 Alpha virt. eigenvalues --    1.13124   1.13377   1.13735   1.14031   1.14657
 Alpha virt. eigenvalues --    1.15066   1.15545   1.15975   1.16282   1.16556
 Alpha virt. eigenvalues --    1.16863   1.17109   1.17767   1.18020   1.18185
 Alpha virt. eigenvalues --    1.18604   1.19010   1.19249   1.20071   1.20301
 Alpha virt. eigenvalues --    1.20778   1.21037   1.21124   1.21489   1.21671
 Alpha virt. eigenvalues --    1.22348   1.22813   1.23092   1.24180   1.24410
 Alpha virt. eigenvalues --    1.24619   1.25011   1.25912   1.26460   1.27335
 Alpha virt. eigenvalues --    1.28027   1.28527   1.29795   1.30651   1.32008
 Alpha virt. eigenvalues --    1.32591   1.32898   1.33902   1.35525   1.36373
 Alpha virt. eigenvalues --    1.37226   1.38160   1.40199   1.40394   1.41734
 Alpha virt. eigenvalues --    1.42005   1.42645   1.43292   1.43584   1.45697
 Alpha virt. eigenvalues --    1.47684   1.48525   1.50353   1.51046   1.53991
 Alpha virt. eigenvalues --    1.55374   1.56113   1.57798   1.58282   1.59676
 Alpha virt. eigenvalues --    1.60536   1.61262   1.62997   1.65793   1.67645
 Alpha virt. eigenvalues --    1.68618   1.70730   1.71545   1.72345   1.72514
 Alpha virt. eigenvalues --    1.73251   1.73849   1.75270   1.77554   1.78111
 Alpha virt. eigenvalues --    1.79939   1.81819   1.84127   1.84521   1.87142
 Alpha virt. eigenvalues --    1.87467   1.88237   1.90179   1.92431   1.92890
 Alpha virt. eigenvalues --    1.95187   1.96268   1.99578   1.99758   2.00865
 Alpha virt. eigenvalues --    2.02364   2.04516   2.04543   2.05690   2.06490
 Alpha virt. eigenvalues --    2.07966   2.08530   2.09292   2.10162   2.10568
 Alpha virt. eigenvalues --    2.11420   2.12011   2.12890   2.13611   2.15207
 Alpha virt. eigenvalues --    2.15427   2.15709   2.16121   2.16545   2.17812
 Alpha virt. eigenvalues --    2.18864   2.19290   2.20170   2.20318   2.21053
 Alpha virt. eigenvalues --    2.22241   2.23594   2.24257   2.25033   2.25582
 Alpha virt. eigenvalues --    2.26231   2.26734   2.27197   2.28100   2.29663
 Alpha virt. eigenvalues --    2.30352   2.31458   2.32212   2.32383   2.33161
 Alpha virt. eigenvalues --    2.33760   2.34478   2.34833   2.36467   2.37103
 Alpha virt. eigenvalues --    2.37866   2.37966   2.39089   2.40132   2.40946
 Alpha virt. eigenvalues --    2.43312   2.45624   2.46344   2.47629   2.50018
 Alpha virt. eigenvalues --    2.50680   2.50997   2.51741   2.52590   2.53712
 Alpha virt. eigenvalues --    2.54146   2.54729   2.56534   2.57563   2.58800
 Alpha virt. eigenvalues --    2.60505   2.61165   2.61754   2.62464   2.63325
 Alpha virt. eigenvalues --    2.64172   2.64577   2.66538   2.67436   2.68419
 Alpha virt. eigenvalues --    2.69691   2.69962   2.71319   2.71829   2.72629
 Alpha virt. eigenvalues --    2.73322   2.75066   2.75839   2.77288   2.77940
 Alpha virt. eigenvalues --    2.79472   2.80291   2.80675   2.82608   2.83193
 Alpha virt. eigenvalues --    2.84868   2.85095   2.88346   2.91228   2.92832
 Alpha virt. eigenvalues --    2.93831   2.95226   2.95825   2.97092   2.97987
 Alpha virt. eigenvalues --    3.00647   3.01634   3.02654   3.03625   3.05050
 Alpha virt. eigenvalues --    3.08181   3.08510   3.10903   3.13031   3.14338
 Alpha virt. eigenvalues --    3.16198   3.18584   3.20904   3.24521   3.25960
 Alpha virt. eigenvalues --    3.30183   3.30812   3.37010   3.37928   3.38517
 Alpha virt. eigenvalues --    3.39286   3.39458   3.47377   3.47785   3.53100
 Alpha virt. eigenvalues --    3.53500   4.33842   4.37128   4.41865   4.46640
 Alpha virt. eigenvalues --    4.47563   4.49683   4.53104   4.55696   4.58580
 Alpha virt. eigenvalues --    4.61860   4.62332   4.64021   4.66053   4.69419
 Alpha virt. eigenvalues --    4.71810   4.73293   4.73673   4.81425   4.82893
 Alpha virt. eigenvalues --    4.86176   4.87080   4.91008   4.92193   4.96162
 Alpha virt. eigenvalues --    5.00199   5.03954   5.16467   5.18149
          Condensed to atoms (all electrons):
 Mulliken atomic charges:
              1
     1  C   -0.277230
     2  N   -0.795178
     3  C    0.798167
     4  O   -0.646067
     5  C    0.093234
     6  C   -0.506944
     7  C   -0.298942
     8  C   -0.325096
     9  C   -0.352822
    10  C   -0.184509
    11  C   -0.166880
    12  C   -0.357203
    13  C   -0.325224
    14  C   -0.328473
    15  C    0.122579
    16  C   -0.487392
    17  N   -0.851146
    18  C    0.754188
    19  C   -0.583465
    20  O   -0.605136
    21  C    0.801310
    22  O   -0.633140
    23  N   -0.777295
    24  C   -0.280511
    25  N   -0.796888
    26  C    0.773298
    27  C   -0.588875
    28  O   -0.621226
    29  H    0.205538
    30  H    0.178913
    31  H    0.166497
    32  H    0.391956
    33  H    0.223516
    34  H    0.196411
    35  H    0.142029
    36  H    0.165765
    37  H    0.189276
    38  H    0.187005
    39  H    0.158580
    40  H    0.175550
    41  H    0.162580
    42  H    0.175025
    43  H    0.179368
    44  H    0.178857
    45  H    0.171846
    46  H    0.166875
    47  H    0.203907
    48  H    0.180452
    49  H    0.167621
    50  H    0.215297
    51  H    0.146346
    52  H    0.199311
    53  H    0.386157
    54  H    0.215328
    55  H    0.210649
    56  H    0.170675
    57  H    0.394731
    58  H    0.163513
    59  H    0.200935
    60  H    0.180444
    61  H    0.400542
    62  H    0.208679
    63  H    0.213077
    64  H    0.173614
 Sum of Mulliken atomic charges =   0.00000
 Mulliken charges with hydrogens summed into heavy atoms:
              1
     1  C    0.273718
     2  N   -0.403222
     3  C    0.798167
     4  O   -0.646067
     5  C    0.093234
     6  C    0.055012
     7  C    0.056100
     8  C    0.020490
     9  C   -0.014692
    10  C   -0.009484
    11  C    0.012488
    12  C   -0.006500
    13  C    0.045557
    14  C    0.019600
    15  C    0.122579
    16  C    0.073561
    17  N   -0.464989
    18  C    0.754188
    19  C    0.013187
    20  O   -0.605136
    21  C    0.801310
    22  O   -0.633140
    23  N   -0.382563
    24  C    0.264382
    25  N   -0.396346
    26  C    0.773298
    27  C    0.006495
    28  O   -0.621226
 Sum of Mulliken charges with hydrogens summed into heavy atoms =   0.00000
 DipInt: DoE/N= T F RetVal/Mat= T F Init=T NMatP=  1 IDeriv=0 Min/MaxMlt=  0  4
 Entering OneElI...
 OneElI was handed    32936476 working-precision words.
 Multipole integrals L=0 to 4 MinM= 0 MaxM= 0.
 Requested accuracy = 0.1000D-12
 PrsmSu:  NPrtUS=   1 ThrOK=F IAlg=1
 PRISM was handed    32088339 working-precision words and 10010 shell-pairs
 IPart=  0 NShTot=       10010 NBatch=          72 AvBLen=       139.0
 Electronic moments (au):
       -216.00000000          0.37433213          2.33824938         -1.29511329
     -18246.44164540      -2300.04309531      -1450.06851602        -10.35680177
         -1.54477077         -2.92437077       -829.97396931      -2637.74285737
      -1826.89506907      -3624.08861252      -6381.22245907      -8162.17405381
       2967.00973884        451.71066264      -1085.14530500      -2156.89386188
   -2171331.58848815     -67985.50138061     -31669.03783528     114810.63921589
     -10999.47292328         94.86342005      -1373.19791703      22667.83618094
        190.92921278    -229481.21708786    -117746.01250712     -11534.34930634
      19917.44654523     -25647.43405710      -9728.88377514
 Electronic spatial extent (au):  <R**2>=          21996.5533
 DipInt: DoE/N= F T RetVal/Mat= T F Init=T NMatP=  1 IDeriv=0 Min/MaxMlt=  0  4
 Nuclear    moments (au):
        216.00000000          0.00000000          0.00000000          0.00000000
      18062.72273923       2184.30107511       1325.94441262          0.00000000
          0.00000000          0.00000000        922.53101526       2722.92400786
       1851.66877632       3723.15619457       6704.96993271       8054.21936432
      -3034.40360131       -448.03023531       1084.39730086       2105.05756331
    2091982.13896414      60402.36541532      26721.82544395    -114843.03374046
      11150.02634404       -468.52181499       1402.59621844     -23032.71554050
       -243.66501339     218851.35609401     106847.28767112       9442.59275667
     -20234.73914169      26009.42376872       9580.37932396
 Total      moments (au):
          0.00000000          0.37433213          2.33824938         -1.29511329
       -183.71890617       -115.74202021       -124.12410340        -10.35680177
         -1.54477077         -2.92437077         92.55704595         85.18115049
         24.77370725         99.06758204        323.74747365       -107.95468949
        -67.39386247          3.68042733         -0.74800415        -51.83629857
     -79349.44952401      -7583.13596529      -4947.21239133        -32.39452456
        150.55342077       -373.65839494         29.39830140       -364.87935956
        -52.73580061     -10629.86099385     -10898.72483600      -2091.75654967
       -317.29259646        361.98971162       -148.50445118
 Traceless Quadrup. (au):
        -42.52389624         25.45298972         17.07090652        -10.35680177
         -1.54477077         -2.92437077
 Charge=              0.0000 electrons
 Dipole moment (field-independent basis, Debye):
    X=              0.9515    Y=              5.9432    Z=             -3.2918  Tot=              6.8603
 Quadrupole moment (field-independent basis, Debye-Ang):
   XX=           -247.1082   YY=           -155.6770   ZZ=           -166.9512
   XY=            -13.9303   XZ=             -2.0778   YZ=             -3.9334
 Traceless Quadrupole moment (field-independent basis, Debye-Ang):
   XX=            -57.1961   YY=             34.2351   ZZ=             22.9610
   XY=            -13.9303   XZ=             -2.0778   YZ=             -3.9334
 Octapole moment (field-independent basis, Debye-Ang**2):
  XXX=             65.8785  YYY=             60.6287  ZZZ=             17.6330  XYY=             70.5125
  XXY=            230.4310  XXZ=            -76.8380  XZZ=            -47.9684  YZZ=              2.6196
  YYZ=             -0.5324  XYZ=            -36.8951
 Hexadecapole moment (field-independent basis, Debye-Ang**3):
 XXXX=         -29886.8056 YYYY=          -2856.1724 ZZZZ=          -1863.3573 XXXY=            -12.2013
 XXXZ=             56.7056 YYYX=           -140.7377 YYYZ=             11.0728 ZZZX=           -137.4311
 ZZZY=            -19.8628 XXYY=          -4003.7151 XXZZ=          -4104.9821 YYZZ=           -787.8558
 XXYZ=           -119.5076 YYXZ=            136.3427 ZZXY=            -55.9339
 N-N= 2.644360149960D+03 E-N=-8.318796158135D+03  KE= 1.292494499024D+03
 Entering OneElI...
 OneElI was handed    32450256 working-precision words.
 Calculate electrostatic properties
    NBasis =   492  MinDer = 0  MaxDer = 0
    NGrid  =    64  NMatD  =   1
 Requested accuracy = 0.1000D-12
 PrsmSu:  NPrtUS=   1 ThrOK=F IAlg=1
 PRISM was handed    31702107 working-precision words and  8398 shell-pairs
 IPart=  0 NShTot=      537472 NBatch=        8398 AvBLen=        64.0
 --------------------------------------------------------
       Center         ----      EFG at Nuclei      ----
                      3XX-RR        3YY-RR        3ZZ-RR
 --------------------------------------------------------
     1   Atom        0.135044     -0.092964     -0.042080
     2   Atom        0.902145     -0.459542     -0.442603
     3   Atom       -0.548516      0.168440      0.380076
     4   Atom       -0.683110      1.391809     -0.708699
     5   Atom        0.155184     -0.215209      0.060025
     6   Atom        0.039409      0.010157     -0.049566
     7   Atom       -0.049736      0.048370      0.001366
     8   Atom       -0.030836      0.025640      0.005197
     9   Atom        0.004800     -0.005892      0.001092
    10   Atom       -0.116081      0.041818      0.074263
    11   Atom       -0.125064      0.046314      0.078750
    12   Atom       -0.005427      0.018069     -0.012642
    13   Atom       -0.022149     -0.033675      0.055824
    14   Atom       -0.086415      0.039568      0.046847
    15   Atom        0.149863     -0.270257      0.120394
    16   Atom        0.045792      0.034110     -0.079903
    17   Atom       -0.295223     -0.396781      0.692004
    18   Atom        0.171613      0.305478     -0.477091
    19   Atom        0.024617     -0.053078      0.028461
    20   Atom       -0.136933      0.915004     -0.778071
    21   Atom       -0.473404      0.250609      0.222795
    22   Atom       -0.761990     -0.875084      1.637074
    23   Atom        0.932537     -0.410459     -0.522079
    24   Atom        0.094824      0.122729     -0.217553
    25   Atom       -0.325669     -0.091150      0.416818
    26   Atom        0.237096      0.096678     -0.333774
    27   Atom        0.027185     -0.039294      0.012110
    28   Atom       -0.472716      0.768248     -0.295533
    29   Atom       -0.038566      0.142071     -0.103505
    30   Atom       -0.232021      0.139496      0.092525
    31   Atom        0.155325     -0.219211      0.063886
    32   Atom        0.171374      0.137400     -0.308774
    33   Atom       -0.222831      0.134971      0.087860
    34   Atom        0.148224     -0.129063     -0.019161
    35   Atom        0.118281     -0.130829      0.012547
    36   Atom        0.132214     -0.214831      0.082617
    37   Atom        0.131610     -0.033146     -0.098464
    38   Atom        0.130337     -0.013551     -0.116786
    39   Atom        0.137386     -0.235549      0.098163
    40   Atom       -0.065488      0.147818     -0.082330
    41   Atom        0.146746     -0.236125      0.089380
    42   Atom        0.092791      0.124919     -0.217709
    43   Atom        0.142256      0.027504     -0.169761
    44   Atom        0.114290     -0.256842      0.142552
    45   Atom        0.094954      0.061560     -0.156514
    46   Atom        0.094144      0.053471     -0.147615
    47   Atom        0.092367      0.028487     -0.120854
    48   Atom        0.060540      0.048409     -0.108948
    49   Atom        0.100290      0.040945     -0.141235
    50   Atom       -0.281854      0.140131      0.141723
    51   Atom        0.105077      0.087770     -0.192847
    52   Atom        0.133569     -0.280596      0.147027
    53   Atom       -0.060451      0.007210      0.053241
    54   Atom        0.014227      0.044656     -0.058883
    55   Atom        0.074308      0.138695     -0.213003
    56   Atom       -0.217232      0.060171      0.157061
    57   Atom        0.231616     -0.364754      0.133138
    58   Atom        0.092902     -0.029275     -0.063627
    59   Atom        0.111342     -0.228880      0.117538
    60   Atom       -0.292660      0.154216      0.138444
    61   Atom       -0.117756      0.154218     -0.036462
    62   Atom       -0.051897     -0.053047      0.104944
    63   Atom        0.144378      0.126018     -0.270396
    64   Atom       -0.220684      0.071769      0.148915
 --------------------------------------------------------
                        XY            XZ            YZ
 --------------------------------------------------------
     1   Atom       -0.046045     -0.063868     -0.200234
     2   Atom       -0.300877      0.241419     -0.058885
     3   Atom        0.136166     -0.033091      0.066960
     4   Atom        0.355145      0.135850      0.746970
     5   Atom        0.022485     -0.031127      0.067796
     6   Atom       -0.005281      0.080125      0.037302
     7   Atom        0.005973     -0.048627      0.026316
     8   Atom        0.013271      0.006557      0.026017
     9   Atom        0.014236     -0.015452     -0.012747
    10   Atom        0.232091     -0.059435      0.032727
    11   Atom        0.248277     -0.069600      0.034193
    12   Atom        0.003361      0.009069      0.018546
    13   Atom        0.035685     -0.010471     -0.017934
    14   Atom       -0.015259      0.019553      0.005379
    15   Atom        0.098278      0.026793      0.046636
    16   Atom       -0.033935     -0.036130     -0.027915
    17   Atom        0.134600      0.447218      0.348798
    18   Atom        0.042163     -0.181544     -0.214937
    19   Atom       -0.013991     -0.006933      0.014089
    20   Atom       -1.206260      0.103761     -0.139320
    21   Atom        0.243840     -0.118135     -0.046075
    22   Atom       -0.074121     -0.165897      0.333280
    23   Atom       -0.218014      0.149403     -0.043646
    24   Atom       -0.042129      0.111826      0.077568
    25   Atom        0.269458      0.310519      0.671810
    26   Atom        0.052547     -0.102335     -0.406029
    27   Atom       -0.020626      0.000862      0.032155
    28   Atom       -0.927123      0.436003     -0.882796
    29   Atom       -0.031749      0.214798      0.019651
    30   Atom        0.045636     -0.146052      0.006615
    31   Atom        0.036471     -0.019973      0.160215
    32   Atom       -0.054657      0.182638      0.096786
    33   Atom       -0.080306     -0.130786     -0.033078
    34   Atom        0.011082      0.017289     -0.211618
    35   Atom        0.095132     -0.057916      0.191936
    36   Atom        0.024797     -0.011327      0.159579
    37   Atom       -0.028746     -0.033675     -0.212822
    38   Atom       -0.032679     -0.038250     -0.207934
    39   Atom       -0.001323      0.000685      0.150375
    40   Atom       -0.007445      0.218270      0.003573
    41   Atom       -0.002133     -0.002222      0.144674
    42   Atom       -0.048810      0.152802      0.088392
    43   Atom       -0.048788     -0.058778     -0.195284
    44   Atom        0.110649     -0.004991      0.030862
    45   Atom       -0.069935     -0.122735     -0.163568
    46   Atom       -0.061616     -0.120347     -0.168419
    47   Atom       -0.069423      0.118031      0.173515
    48   Atom       -0.081174     -0.141360     -0.157650
    49   Atom       -0.056292      0.108119      0.172501
    50   Atom        0.051014      0.011249     -0.005520
    51   Atom       -0.059017      0.122097      0.142239
    52   Atom        0.074990     -0.006961     -0.004066
    53   Atom       -0.176696      0.221435      0.180688
    54   Atom        0.117504      0.170052     -0.140379
    55   Atom        0.018430     -0.172769      0.039218
    56   Atom       -0.166795      0.008177      0.004878
    57   Atom       -0.008528      0.007142      0.106323
    58   Atom       -0.112653     -0.109235     -0.187203
    59   Atom        0.123057     -0.020037      0.092132
    60   Atom        0.018801      0.013650      0.004721
    61   Atom       -0.064350      0.277104      0.117257
    62   Atom        0.202183      0.096558     -0.089739
    63   Atom       -0.015784     -0.068204     -0.086831
    64   Atom       -0.159301     -0.044806     -0.013005
 --------------------------------------------------------


 ---------------------------------------------------------------------------------
              Nuclear Quadrupole in Principal Axis System
 ---------------------------------------------------------------------------------

       Atom             a.u.   MegaHertz   Gauss  10(-4) cm-1        Axes

              Baa    -0.2835   -38.039   -13.573   -12.689  0.1807  0.7330  0.6558
     1 C(13)  Bbb     0.1230    16.508     5.890     5.506 -0.5399  0.6313 -0.5568
              Bcc     0.1605    21.531     7.683     7.182  0.8221  0.2534 -0.5098
 
              Baa    -0.5245   -20.230    -7.219    -6.748  0.1722  0.9670  0.1876
     2 N(14)  Bbb    -0.4836   -18.653    -6.656    -6.222 -0.2015 -0.1519  0.9676
              Bcc     1.0082    38.884    13.875    12.970  0.9642 -0.2044  0.1687
 
              Baa    -0.5756   -77.240   -27.561   -25.765  0.9818 -0.1839  0.0469
     3 C(13)  Bbb     0.1761    23.628     8.431     7.881  0.1897  0.9416 -0.2783
              Bcc     0.3995    53.612    19.130    17.883  0.0070  0.2821  0.9594
 
              Baa    -0.9494    68.699    24.513    22.915 -0.1010 -0.2885  0.9521
     4 O(17)  Bbb    -0.7416    53.665    19.149    17.901  0.9823 -0.1808  0.0494
              Bcc     1.6911  -122.364   -43.663   -40.816  0.1579  0.9403  0.3016
 
              Baa    -0.2332   -31.290   -11.165   -10.437 -0.0748  0.9698 -0.2322
     5 C(13)  Bbb     0.0687     9.219     3.289     3.075  0.2717  0.2438  0.9310
              Bcc     0.1645    22.071     7.876     7.362  0.9595  0.0065 -0.2817
 
              Baa    -0.1072   -14.380    -5.131    -4.797 -0.4675 -0.2869  0.8362
     6 C(13)  Bbb     0.0178     2.382     0.850     0.795 -0.3136  0.9382  0.1466
              Bcc     0.0894    11.998     4.281     4.002  0.8265  0.1937  0.5285
 
              Baa    -0.0819   -10.987    -3.921    -3.665  0.8335 -0.1459  0.5330
     7 C(13)  Bbb     0.0192     2.577     0.920     0.860 -0.5254 -0.5082  0.6824
              Bcc     0.0627     8.410     3.001     2.805 -0.1713  0.8488  0.5002
 
              Baa    -0.0338    -4.538    -1.619    -1.514  0.9780 -0.2067 -0.0266
     8 C(13)  Bbb    -0.0123    -1.657    -0.591    -0.553 -0.0916 -0.5407  0.8362
              Bcc     0.0462     6.195     2.210     2.066  0.1872  0.8154  0.5478
 
              Baa    -0.0164    -2.196    -0.784    -0.732 -0.3458  0.8768  0.3341
     9 C(13)  Bbb    -0.0126    -1.693    -0.604    -0.565  0.6715 -0.0174  0.7408
              Bcc     0.0290     3.889     1.388     1.297  0.6553  0.4806 -0.5828
 
              Baa    -0.2946   -39.532   -14.106   -13.186  0.8015 -0.5704  0.1797
    10 C(13)  Bbb     0.0861    11.549     4.121     3.852 -0.1085  0.1569  0.9816
              Bcc     0.2085    27.983     9.985     9.334  0.5881  0.8062 -0.0638
 
              Baa    -0.3168   -42.517   -15.171   -14.182  0.8020 -0.5662  0.1901
    11 C(13)  Bbb     0.0924    12.398     4.424     4.136 -0.1000  0.1864  0.9774
              Bcc     0.2244    30.118    10.747    10.046  0.5888  0.8029 -0.0929
 
              Baa    -0.0240    -3.217    -1.148    -1.073 -0.3588 -0.3526  0.8643
    12 C(13)  Bbb    -0.0043    -0.573    -0.205    -0.191  0.9104 -0.3366  0.2406
              Bcc     0.0282     3.790     1.352     1.264  0.2061  0.8731  0.4418
 
              Baa    -0.0645    -8.651    -3.087    -2.886 -0.6348  0.7704  0.0596
    13 C(13)  Bbb     0.0013     0.172     0.062     0.057  0.7399  0.5839  0.3341
              Bcc     0.0632     8.479     3.025     2.828 -0.2226 -0.2562  0.9407
 
              Baa    -0.0912   -12.232    -4.365    -4.080  0.9822  0.1206 -0.1439
    14 C(13)  Bbb     0.0404     5.426     1.936     1.810 -0.1596  0.9399 -0.3017
              Bcc     0.0507     6.806     2.429     2.270  0.0989  0.3193  0.9425
 
              Baa    -0.2959   -39.710   -14.170   -13.246 -0.2088  0.9733 -0.0956
    15 C(13)  Bbb     0.1047    14.053     5.014     4.688 -0.4821 -0.0174  0.8760
              Bcc     0.1912    25.657     9.155     8.558  0.8509  0.2290  0.4728
 
              Baa    -0.0994   -13.341    -4.760    -4.450  0.2908  0.2660  0.9190
    16 C(13)  Bbb     0.0243     3.260     1.163     1.088  0.5353  0.7509 -0.3868
              Bcc     0.0751    10.081     3.597     3.362  0.7930 -0.6045 -0.0760
 
              Baa    -0.4993   -19.256    -6.871    -6.423 -0.0976  0.9644 -0.2457
    17 N(14)  Bbb    -0.4677   -18.038    -6.436    -6.017  0.9328  0.0025 -0.3605
              Bcc     0.9670    37.294    13.307    12.440  0.3470  0.2644  0.8998
 
              Baa    -0.5695   -76.426   -27.271   -25.493  0.2200  0.2227  0.9497
    18 C(13)  Bbb     0.1714    23.003     8.208     7.673  0.8903 -0.4438 -0.1021
              Bcc     0.3981    53.423    19.063    17.820  0.3987  0.8680 -0.2959
 
              Baa    -0.0574    -7.705    -2.749    -2.570  0.1541  0.9769 -0.1478
    19 C(13)  Bbb     0.0194     2.605     0.930     0.869  0.7734 -0.0262  0.6334
              Bcc     0.0380     5.100     1.820     1.701 -0.6149  0.2119  0.7596
 
              Baa    -0.9277    67.128    23.953    22.391  0.8369  0.5421 -0.0756
    20 O(17)  Bbb    -0.7893    57.115    20.380    19.052  0.0255  0.0993  0.9947
              Bcc     1.7170  -124.243   -44.333   -41.443 -0.5468  0.8344 -0.0693
 
              Baa    -0.5606   -75.231   -26.844   -25.094  0.9519 -0.2789  0.1271
    21 C(13)  Bbb     0.1904    25.547     9.116     8.522  0.0355  0.5124  0.8580
              Bcc     0.3702    49.683    17.728    16.573  0.3044  0.8122 -0.4977
 
              Baa    -0.9353    67.677    24.149    22.575  0.3063  0.9464 -0.1029
    22 O(17)  Bbb    -0.7576    54.819    19.561    18.286  0.9493 -0.2956  0.1069
              Bcc     1.6929  -122.496   -43.710   -40.860 -0.0708  0.1304  0.9889
 
              Baa    -0.5419   -20.900    -7.458    -6.971 -0.0675  0.2118  0.9750
    23 N(14)  Bbb    -0.4410   -17.008    -6.069    -5.673  0.1746  0.9646 -0.1975
              Bcc     0.9829    37.908    13.526    12.645  0.9823 -0.1569  0.1021
 
              Baa    -0.2725   -36.570   -13.049   -12.198 -0.3069 -0.2147  0.9272
    24 C(13)  Bbb     0.1193    16.012     5.714     5.341  0.7346  0.5659  0.3742
              Bcc     0.1532    20.558     7.335     6.857 -0.6051  0.7960 -0.0160
 
              Baa    -0.5710   -22.023    -7.858    -7.346 -0.3259  0.8262 -0.4595
    25 N(14)  Bbb    -0.4355   -16.796    -5.993    -5.603  0.8987  0.1199 -0.4219
              Bcc     1.0065    38.819    13.852    12.949  0.2935  0.5504  0.7816
 
              Baa    -0.5826   -78.183   -27.898   -26.079  0.0747  0.5074  0.8585
    26 C(13)  Bbb     0.1818    24.402     8.707     8.140  0.8501 -0.4825  0.2112
              Bcc     0.4008    53.781    19.191    17.940  0.5214  0.7140 -0.4673
 
              Baa    -0.0590    -7.913    -2.824    -2.639  0.2168  0.8885 -0.4046
    27 C(13)  Bbb     0.0213     2.858     1.020     0.953  0.6026  0.2043  0.7714
              Bcc     0.0377     5.055     1.804     1.686  0.7680 -0.4110 -0.4911
 
              Baa    -0.9719    70.322    25.093    23.457  0.8471  0.5159  0.1274
    28 O(17)  Bbb    -0.7675    55.537    19.817    18.525 -0.3261  0.3154  0.8912
              Bcc     1.7394  -125.859   -44.910   -41.982 -0.4196  0.7964 -0.4354
 
              Baa    -0.2912  -155.371   -55.440   -51.826 -0.6515 -0.0819  0.7542
    29 H(1)   Bbb     0.1344    71.692    25.581    23.914  0.4817  0.7233  0.4947
              Bcc     0.1568    83.679    29.859    27.912 -0.5861  0.6856 -0.4318
 
              Baa    -0.2928  -156.198   -55.735   -52.102  0.9295 -0.1035  0.3541
    30 H(1)   Bbb     0.1360    72.573    25.896    24.208 -0.1482  0.7742  0.6153
              Bcc     0.1567    83.625    29.839    27.894 -0.3379 -0.6244  0.7043
 
              Baa    -0.2953  -157.539   -56.214   -52.549 -0.0916  0.9075 -0.4099
    31 H(1)   Bbb     0.1357    72.396    25.833    24.149  0.1347  0.4192  0.8979
              Bcc     0.1596    85.143    30.381    28.400  0.9866  0.0271 -0.1606
 
              Baa    -0.3929  -209.610   -74.794   -69.918 -0.3193 -0.2019  0.9259
    32 H(1)   Bbb     0.1546    82.461    29.424    27.506  0.1761  0.9474  0.2673
              Bcc     0.2383   127.149    45.370    42.412  0.9312 -0.2484  0.2669
 
              Baa    -0.2883  -153.847   -54.897   -51.318  0.9197  0.2008  0.3374
    33 H(1)   Bbb     0.1349    71.981    25.685    24.010 -0.3740  0.1868  0.9084
              Bcc     0.1534    81.866    29.212    27.308 -0.1194  0.9617 -0.2469
 
              Baa    -0.2936  -156.649   -55.896   -52.252 -0.0438  0.7898  0.6118
    34 H(1)   Bbb     0.1395    74.454    26.567    24.835 -0.5853 -0.5165  0.6250
              Bcc     0.1541    82.194    29.329    27.417  0.8096 -0.3308  0.4849
 
              Baa    -0.2940  -156.872   -55.976   -52.327 -0.2604  0.7954 -0.5472
    35 H(1)   Bbb     0.1405    74.942    26.741    24.998 -0.6131  0.3016  0.7302
[...]
 **** Fit       0.022155
 **** Fit       0.020645
 **** Fit       0.018220
 **** Fit       0.015058
 **** Fit       0.017182
 **** Fit       0.019712
 **** Fit       0.021666
 **** Fit       0.023082
 **** Fit       0.023928
 **** Fit       0.024109
 **** Fit       0.023487
 **** Fit       0.021926
 **** Fit       0.019328
 **** Fit       0.015719
 **** Fit       0.011390
 **** Fit       0.017746
 **** Fit       0.020266
 **** Fit       0.022282
 **** Fit       0.023871
 **** Fit       0.025023
 **** Fit       0.025638
 **** Fit       0.025528
 **** Fit       0.024469
 **** Fit       0.022235
 **** Fit       0.021076
 **** Fit       0.022941
 **** Fit       0.024558
 **** Fit       0.025933
 **** Fit       0.006463
 **** Fit       0.006760
 **** Fit       0.007343
 **** Fit       0.006922
 **** Fit       0.006025
 **** Fit       0.005593
 **** Fit       0.005910
 **** Fit       0.006917
 **** Fit       0.007784
 **** Fit       0.008245
 **** Fit       0.008059
 **** Fit       0.007293
 **** Fit       0.006298
 **** Fit       0.005448
 **** Fit       0.004926
 **** Fit       0.004736
 **** Fit       0.004846
 **** Fit       0.005265
 **** Fit       0.005992
 **** Fit       0.006935
 **** Fit       0.007923
 **** Fit       0.008746
 **** Fit       0.009198
 **** Fit       0.009137
 **** Fit       0.008551
 **** Fit       0.007588
 **** Fit       0.006490
 **** Fit       0.005494
 **** Fit       0.004740
 **** Fit       0.004257
 **** Fit       0.003996
 **** Fit       0.003903
 **** Fit       0.003951
 **** Fit       0.004151
 **** Fit       0.004538
 **** Fit       0.005145
 **** Fit       0.005965
 **** Fit       0.006813
 **** Fit       0.007936
 **** Fit       0.009001
 **** Fit       0.009843
 **** Fit       0.010293
 **** Fit       0.010235
 **** Fit       0.009652
 **** Fit       0.008643
 **** Fit       0.007398
 **** Fit       0.006136
 **** Fit       0.005042
 **** Fit       0.004218
 **** Fit       0.003673
 **** Fit       0.003354
 **** Fit       0.003375
 **** Fit       0.003681
 **** Fit       0.004167
 **** Fit       0.004863
 **** Fit       0.005760
 **** Fit       0.006544
 **** Fit       0.007831
 **** Fit       0.009139
 **** Fit       0.010323
 **** Fit       0.011205
 **** Fit       0.011620
 **** Fit       0.011462
 **** Fit       0.010727
 **** Fit       0.009520
 **** Fit       0.008033
 **** Fit       0.006492
 **** Fit       0.005103
 **** Fit       0.004006
 **** Fit       0.003115
 **** Fit       0.003646
 **** Fit       0.004405
 **** Fit       0.005382
 **** Fit       0.006105
 **** Fit       0.007542
 **** Fit       0.009085
 **** Fit       0.010610
 **** Fit       0.011943
 **** Fit       0.012890
 **** Fit       0.013280
 **** Fit       0.013012
 **** Fit       0.012095
 **** Fit       0.010648
 **** Fit       0.008869
 **** Fit       0.006998
 **** Fit       0.005263
 **** Fit       0.003840
 **** Fit       0.003017
 **** Fit       0.003812
 **** Fit       0.004849
 **** Fit       0.005429
 **** Fit       0.007113
 **** Fit       0.009018
 **** Fit       0.011018
 **** Fit       0.012910
 **** Fit       0.014437
 **** Fit       0.015337
 **** Fit       0.015419
 **** Fit       0.014623
 **** Fit       0.013044
 **** Fit       0.010904
 **** Fit       0.008499
 **** Fit       0.006139
 **** Fit       0.004024
 **** Fit       0.004359
 **** Fit       0.006293
 **** Fit       0.008618
 **** Fit       0.011220
 **** Fit       0.013871
 **** Fit       0.016236
 **** Fit       0.017931
 **** Fit       0.018621
 **** Fit       0.018133
 **** Fit       0.016510
 **** Fit       0.013996
 **** Fit       0.010958
 **** Fit      -0.000018
 **** Fit       0.000237
 **** Fit       0.000636
 **** Fit       0.001127
 **** Fit      -0.001399
 **** Fit      -0.001133
 **** Fit      -0.000731
 **** Fit      -0.000271
 **** Fit       0.000200
 **** Fit       0.000673
 **** Fit      -0.003117
 **** Fit      -0.002869
 **** Fit      -0.002443
 **** Fit      -0.001922
 **** Fit      -0.001368
 **** Fit      -0.000827
 **** Fit      -0.000329
 **** Fit       0.000121
 **** Fit      -0.005236
 **** Fit      -0.005018
 **** Fit      -0.004589
 **** Fit      -0.004025
 **** Fit      -0.003389
 **** Fit      -0.002727
 **** Fit      -0.002080
 **** Fit      -0.001481
 **** Fit      -0.000957
 **** Fit      -0.000524
 **** Fit      -0.000174
 **** Fit      -0.007853
 **** Fit      -0.007579
 **** Fit      -0.007068
 **** Fit      -0.006399
 **** Fit      -0.005634
 **** Fit      -0.004820
 **** Fit      -0.003996
 **** Fit      -0.003198
 **** Fit      -0.002463
 **** Fit      -0.001832
 **** Fit      -0.001348
 **** Fit      -0.001042
 **** Fit      -0.011158
 **** Fit      -0.010833
 **** Fit      -0.010247
 **** Fit      -0.009483
 **** Fit      -0.008599
 **** Fit      -0.007638
 **** Fit      -0.006636
 **** Fit      -0.005624
 **** Fit      -0.004637
 **** Fit      -0.003719
 **** Fit      -0.002930
 **** Fit      -0.002345
 **** Fit      -0.002056
 **** Fit      -0.015184
 **** Fit      -0.014599
 **** Fit      -0.013779
 **** Fit      -0.012792
 **** Fit      -0.011687
 **** Fit      -0.010498
 **** Fit      -0.009252
 **** Fit      -0.007975
 **** Fit      -0.006700
 **** Fit      -0.005483
 **** Fit      -0.004407
 **** Fit      -0.003602
 **** Fit      -0.003239
 **** Fit      -0.020728
 **** Fit      -0.020038
 **** Fit      -0.019048
 **** Fit      -0.017844
 **** Fit      -0.016479
 **** Fit      -0.014988
 **** Fit      -0.013394
 **** Fit      -0.011713
 **** Fit      -0.009972
 **** Fit      -0.008227
 **** Fit      -0.006592
 **** Fit      -0.005274
 **** Fit      -0.004588
 **** Fit      -0.027734
 **** Fit      -0.026626
 **** Fit      -0.025197
 **** Fit      -0.023528
 **** Fit      -0.021667
 **** Fit      -0.019634
 **** Fit      -0.017429
 **** Fit      -0.015051
 **** Fit      -0.012523
 **** Fit      -0.009956
 **** Fit       0.000350
 **** Fit      -0.000201
 **** Fit      -0.000460
 **** Fit      -0.000014
 **** Fit      -0.000849
 **** Fit      -0.001382
 **** Fit      -0.001724
 **** Fit      -0.001930
 **** Fit      -0.001984
 **** Fit      -0.000873
 **** Fit      -0.001858
 **** Fit      -0.002475
 **** Fit      -0.002873
 **** Fit      -0.003162
 **** Fit      -0.003397
 **** Fit      -0.003580
 **** Fit      -0.003658
 **** Fit      -0.002075
 **** Fit      -0.003228
 **** Fit      -0.003913
 **** Fit      -0.004310
 **** Fit      -0.004566
 **** Fit      -0.004779
 **** Fit      -0.005005
 **** Fit      -0.005255
 **** Fit      -0.005499
 **** Fit      -0.005662
 **** Fit      -0.003269
 **** Fit      -0.004921
 **** Fit      -0.005835
 **** Fit      -0.006274
 **** Fit      -0.006461
 **** Fit      -0.006562
 **** Fit      -0.006684
 **** Fit      -0.006885
 **** Fit      -0.007181
 **** Fit      -0.007549
 **** Fit      -0.007927
 **** Fit      -0.008205
 **** Fit      -0.007393
 **** Fit      -0.008647
 **** Fit      -0.009139
 **** Fit      -0.009203
 **** Fit      -0.009094
 **** Fit      -0.008982
 **** Fit      -0.008971
 **** Fit      -0.009116
 **** Fit      -0.009431
 **** Fit      -0.009901
 **** Fit      -0.010476
 **** Fit      -0.011071
 **** Fit      -0.011999
 **** Fit      -0.013263
 **** Fit      -0.013469
 **** Fit      -0.013128
 **** Fit      -0.012603
 **** Fit      -0.012121
 **** Fit      -0.011813
 **** Fit      -0.011745
 **** Fit      -0.011944
 **** Fit      -0.012405
 **** Fit      -0.013102
 **** Fit      -0.013981
 **** Fit      -0.014952
 **** Fit      -0.020047
 **** Fit      -0.018953
 **** Fit      -0.017622
 **** Fit      -0.016433
 **** Fit      -0.015570
 **** Fit      -0.015114
 **** Fit      -0.015087
 **** Fit      -0.015485
 **** Fit      -0.016289
 **** Fit      -0.017462
 **** Fit      -0.018945
 **** Fit      -0.023853
 **** Fit      -0.021572
 **** Fit      -0.020008
 **** Fit      -0.019179
 **** Fit      -0.019059
 **** Fit      -0.019615
 **** Fit      -0.020822
 **** Fit      -0.022659
 **** Fit      -0.025103
 **** Fit      -0.027859
 **** Fit      -0.025342
 **** Fit      -0.024053
 **** Fit      -0.023867
 **** Fit      -0.024711
 **** Fit      -0.026568
 **** Fit      -0.029482
 **** Fit      -0.031673
 **** Fit      -0.029789
 **** Fit      -0.029760
 **** Fit      -0.031462
 **** Fit      -0.036440
 **** Fit      -0.003740
 **** Fit       0.003318
 **** Fit       0.009981
 **** Fit       0.013731
 **** Fit       0.017156
 **** Fit       0.019257
 **** Fit       0.020256
 **** Fit       0.020525
 **** Fit       0.020951
 **** Fit       0.020271
 **** Fit       0.018960
 **** Fit       0.019541
 **** Fit       0.017372
 **** Fit       0.017924
 **** Fit       0.014647
 **** Fit       0.015279
 **** Fit       0.015530
 **** Fit       0.011911
 **** Fit      -0.006083
 **** Fit      -0.000098
 **** Fit      -0.001627
 **** Fit      -0.003614
 **** Fit      -0.007050
 **** Fit      -0.010279
 **** Fit       0.000680
 **** Fit      -0.000559
 **** Fit      -0.002197
 **** Fit      -0.004341
 **** Fit      -0.007942
 **** Fit      -0.011663
 **** Fit      -0.016070
 **** Fit       0.002325
 **** Fit       0.001523
 **** Fit       0.000516
 **** Fit      -0.000820
 **** Fit      -0.002604
 **** Fit      -0.004944
 **** Fit      -0.008819
 **** Fit      -0.012926
 **** Fit      -0.018056
 **** Fit       0.002871
 **** Fit       0.002198
 **** Fit       0.001371
 **** Fit       0.000284
 **** Fit      -0.001165
 **** Fit      -0.003083
 **** Fit      -0.005589
 **** Fit      -0.009697
 **** Fit      -0.014383
 **** Fit      -0.020517
 **** Fit       0.003564
 **** Fit       0.002964
 **** Fit       0.002282
 **** Fit       0.001410
 **** Fit       0.000248
 **** Fit      -0.001310
 **** Fit      -0.003383
 **** Fit      -0.006115
 **** Fit      -0.010558
 **** Fit      -0.015687
 **** Fit      -0.022621
 **** Fit       0.003547
 **** Fit       0.002945
 **** Fit       0.002229
 **** Fit       0.001299
 **** Fit       0.000057
 **** Fit      -0.001600
 **** Fit      -0.003801
 **** Fit      -0.006710
 **** Fit      -0.011353
 **** Fit      -0.016909
 **** Fit       0.004154
 **** Fit       0.003545
 **** Fit       0.002916
 **** Fit       0.002160
 **** Fit       0.001178
 **** Fit      -0.000128
 **** Fit      -0.001869
 **** Fit      -0.004182
 **** Fit      -0.007252
 **** Fit      -0.012007
 **** Fit      -0.018127
 **** Fit       0.003695
 **** Fit       0.003017
 **** Fit       0.002232
 **** Fit       0.001224
 **** Fit      -0.000118
 **** Fit      -0.001919
 **** Fit      -0.004337
 **** Fit      -0.007589
 **** Fit      -0.012418
 **** Fit      -0.019028
 **** Fit       0.003945
 **** Fit       0.003169
 **** Fit       0.002342
 **** Fit       0.001318
 **** Fit      -0.000036
 **** Fit      -0.001866
 **** Fit      -0.004351
 **** Fit      -0.007740
 **** Fit      -0.012468
 **** Fit       0.003278
 **** Fit       0.002376
 **** Fit       0.001325
 **** Fit      -0.000033
 **** Fit      -0.001859
 **** Fit      -0.004343
 **** Fit      -0.007747
 **** Fit      -0.012033
 **** Fit       0.002813
 **** Fit       0.001698
 **** Fit       0.000355
 **** Fit      -0.001426
 **** Fit      -0.003871
 **** Fit      -0.007267
 **** Fit      -0.010998
 **** Fit       0.000809
 **** Fit      -0.000912
 **** Fit      -0.003243
 **** Fit      -0.006481
 **** Fit      -0.009281
 **** Fit       0.000027
 **** Fit      -0.002164
 **** Fit      -0.005170
 **** Fit      -0.002000
 **** Fit      -0.002763
 **** Fit      -0.004537
 **** Fit      -0.003878
 **** Fit      -0.001295
 **** Fit       0.000069
 **** Fit      -0.000687
 **** Fit      -0.003633
 **** Fit      -0.005847
 **** Fit      -0.007614
 **** Fit      -0.008096
 **** Fit      -0.006531
 **** Fit      -0.003489
 **** Fit      -0.000583
 **** Fit       0.001186
 **** Fit       0.001743
 **** Fit       0.001346
 **** Fit       0.000218
 **** Fit      -0.001501
 **** Fit      -0.004642
 **** Fit      -0.006945
 **** Fit      -0.009234
 **** Fit      -0.011300
 **** Fit      -0.012678
 **** Fit      -0.012509
 **** Fit      -0.010250
 **** Fit      -0.006542
 **** Fit      -0.002733
 **** Fit       0.000218
 **** Fit       0.002056
 **** Fit       0.002933
 **** Fit       0.003093
 **** Fit       0.002734
 **** Fit       0.001968
 **** Fit       0.000841
 **** Fit      -0.000648
 **** Fit      -0.002496
 **** Fit      -0.005812
 **** Fit      -0.008322
 **** Fit      -0.010891
 **** Fit      -0.013475
 **** Fit      -0.016070
 **** Fit      -0.018370
 **** Fit      -0.019377
 **** Fit      -0.017902
 **** Fit      -0.013893
 **** Fit      -0.008693
 **** Fit      -0.003836
 **** Fit      -0.000142
 **** Fit       0.002269
 **** Fit       0.003618
 **** Fit       0.004201
 **** Fit       0.004257
 **** Fit       0.003949
 **** Fit       0.003366
 **** Fit       0.002549
 **** Fit       0.001496
 **** Fit       0.000171
 **** Fit      -0.001483
 **** Fit      -0.003492
 **** Fit      -0.013002
 **** Fit      -0.015928
 **** Fit      -0.018977
 **** Fit      -0.022437
 **** Fit      -0.015444
 **** Fit      -0.008329
 **** Fit      -0.002683
 **** Fit       0.001194
 **** Fit       0.003557
 **** Fit       0.004814
 **** Fit       0.005330
 **** Fit       0.005372
 **** Fit       0.005105
 **** Fit       0.004625
 **** Fit       0.003981
 **** Fit       0.003190
 **** Fit       0.002241
 **** Fit       0.001087
 **** Fit      -0.006514
 **** Fit      -0.000581
 **** Fit       0.003151
 **** Fit       0.005254
 **** Fit       0.006268
 **** Fit       0.006605
 **** Fit       0.006535
 **** Fit       0.006220
 **** Fit       0.005749
 **** Fit       0.005170
 **** Fit       0.004506
 **** Fit      -0.003910
 **** Fit       0.002395
 **** Fit       0.005915
 **** Fit       0.007597
 **** Fit       0.008181
 **** Fit       0.008160
 **** Fit       0.007823
 **** Fit       0.007322
 **** Fit       0.007308
 **** Fit       0.009965
 **** Fit       0.010778
 **** Fit       0.010649
 **** Fit       0.010103
 **** Fit       0.012741
 **** Fit       0.011249
 **** Fit       0.010066
 **** Fit       0.009077
 **** Fit       0.008211
 **** Fit       0.016547
 **** Fit       0.014075
 **** Fit       0.012299
 **** Fit       0.010948
 **** Fit       0.009855
 **** Fit       0.008915
 **** Fit       0.008065
 **** Fit       0.007277
 **** Fit       0.018080
 **** Fit       0.015233
 **** Fit       0.013254
 **** Fit       0.011784
 **** Fit       0.010618
 **** Fit       0.009628
 **** Fit       0.008741
 **** Fit       0.007913
 **** Fit       0.007131
 **** Fit       0.006408
 **** Fit       0.020977
 **** Fit       0.017255
 **** Fit       0.014797
 **** Fit       0.013048
 **** Fit       0.011712
 **** Fit       0.010619
 **** Fit       0.009665
 **** Fit       0.008789
 **** Fit       0.007955
 **** Fit       0.007156
 **** Fit       0.006404
 **** Fit       0.018769
 **** Fit       0.015878
 **** Fit       0.013894
 **** Fit       0.012418
 **** Fit       0.011234
 **** Fit       0.010217
 **** Fit       0.009289
 **** Fit       0.008405
 **** Fit       0.007546
 **** Fit       0.006713
 **** Fit       0.005935
 **** Fit       0.017722
 **** Fit       0.015236
 **** Fit       0.013477
 **** Fit       0.012124
 **** Fit       0.011000
 **** Fit       0.010000
 **** Fit       0.009059
 **** Fit       0.008142
 **** Fit       0.007234
 **** Fit       0.006344
 **** Fit       0.005501
 **** Fit       0.016001
 **** Fit       0.014175
 **** Fit       0.012768
 **** Fit       0.011605
 **** Fit       0.010580
 **** Fit       0.009621
 **** Fit       0.008686
 **** Fit       0.007749
 **** Fit       0.006807
 **** Fit       0.005868
 **** Fit       0.013827
 **** Fit       0.012692
 **** Fit       0.011638
 **** Fit       0.010648
 **** Fit       0.009686
 **** Fit       0.008721
 **** Fit       0.007732
 **** Fit       0.006715
 **** Fit       0.005678
 **** Fit       0.011565
 **** Fit       0.011097
 **** Fit       0.010370
 **** Fit       0.009523
 **** Fit       0.008595
 **** Fit       0.007597
 **** Fit       0.006539
 **** Fit       0.005439
 **** Fit       0.009040
 **** Fit       0.009543
 **** Fit       0.009224
 **** Fit       0.008512
 **** Fit       0.007579
 **** Fit       0.006505
 **** Fit       0.005351
 **** Fit       0.006980
 **** Fit       0.007860
 **** Fit       0.007517
 **** Fit       0.006579
 **** Fit       0.005371
 **** Fit       0.005481
 **** Fit       0.006185
 **** Fit       0.005168
 **** Fit       0.004468
 -----------------------------------------------------------------
 Leave Link  602 at Sat Dec  7 02:23:41 2019, MaxMem=   33554432 cpu:       5.3

 Test job not archived.
 1\1\GINC-MOSURA\FOpt\RHF\6-31G(d)\C20H36N4O4\MARIE\07-Dec-2019\0\\#HF/
 6-31G* SCF=tight Test Pop=MK iop(6/33=2) iop(6/42=6) opt\\remark line 
 goes here\\0,1\C,-5.9518083255,-3.1985918482,-2.3027899871\N,-5.703579
 4718,-1.8882659731,-1.7351211054\C,-5.072144321,-1.7753958738,-0.54623
 73452\O,-4.5737450717,-2.7218300572,0.0027441927\C,-4.9043463962,-0.35
 41658453,0.0400745704\C,-5.9702825288,0.6484806526,-0.4321414632\C,-3.
 5223874888,0.1976064969,-0.3969447963\C,-2.2678659209,-0.5763167954,0.
 0283142955\C,-0.9795958434,-0.0099492434,-0.5964869045\C,-0.670291563,
 1.4143111752,-0.2023884647\C,0.1975420466,1.8349160438,0.7044741722\C,
 1.1059820687,1.0188772514,1.5884872022\C,2.5921624767,1.3825549817,1.4
 37153834\C,3.1468798775,1.0042274357,0.0612778847\C,4.6525309408,1.281
 1538285,-0.1740964529\C,4.9799842328,2.7724430112,-0.0497049358\N,4.92
 61287938,0.8003949866,-1.5352730777\C,6.1573070493,0.8378636856,-2.118
 5304245\C,6.1651949614,0.6308652557,-3.6186844581\O,7.1645598232,1.009
 9108553,-1.4923232776\C,5.4592935879,0.4799520127,0.8659145512\O,5.816
 96378,0.9933214596,1.8903166814\N,5.6169135009,-0.8392801688,0.6189049
 98\C,6.4563315204,-1.6456066776,1.4799565837\N,-4.9371343131,-0.450580
 0887,1.4924683416\C,-5.9798816101,-1.0439407929,2.1409743693\C,-5.7181
 785205,-1.3894568698,3.589324652\O,-7.0287603916,-1.2783853737,1.60722
 4279\H,-5.0241066734,-3.7467867937,-2.3745687517\H,-6.6445072494,-3.77
 46558774,-1.6995126785\H,-6.3634647075,-3.0719357767,-3.2955674492\H,-
 6.3076607671,-1.1534855618,-2.0170599207\H,-6.9705179696,0.2880881293,
 -0.2430050264\H,-5.8381243982,1.5758172321,0.1116311752\H,-5.857538887
 3,0.8716044125,-1.4887280138\H,-3.5375548555,0.2629942033,-1.481483392
 3\H,-3.4623920215,1.2158003572,-0.025336957\H,-2.3617889363,-1.6174640
 055,-0.2507725484\H,-2.1506912148,-0.5533648097,1.1088449393\H,-0.1584
 489814,-0.6638386538,-0.3271658141\H,-1.0649983407,-0.0609556218,-1.68
 03725381\H,-1.2379318603,2.1700415973,-0.7223317308\H,0.2767431495,2.9
 018087124,0.8539946891\H,0.8221553951,1.199752139,2.6234628895\H,0.970
 2489236,-0.0434621387,1.4183126266\H,2.7146237645,2.4470105128,1.60976
 21087\H,3.1552486189,0.8805748022,2.2146891902\H,2.9689541298,-0.05393
 8802,-0.1116731543\H,2.5924136962,1.5444510662,-0.7025673577\H,6.01681
 17127,2.952734911,-0.2951521498\H,4.351771054,3.3377423836,-0.73258922
 9\H,4.812859793,3.1236938431,0.9568128132\H,4.1435804748,0.7864065779,
 -2.1508437723\H,7.1461570224,0.2941020205,-3.9205768661\H,5.9592672659
 ,1.5774252151,-4.1095243895\H,5.4171184312,-0.0861005808,-3.9384453437
 \H,5.5002123832,-1.1392044782,-0.3201989182\H,6.334452163,-2.685986876
 ,1.2070093965\H,6.1536648005,-1.5152805242,2.5082016981\H,7.5030964117
 ,-1.3748327199,1.3921488598\H,-4.0536090917,-0.5537229583,1.9358791352
 \H,-6.6624291741,-1.4890873866,4.1045346421\H,-5.1975914878,-2.3415067
 718,3.6303446161\H,-5.1067954668,-0.6425513032,4.0829593071\\Version=E
 M64L-G09RevA.02\State=1-A\HF=-1295.627884\RMSD=8.203e-09\RMSF=1.533e-0
 6\Dipole=-0.8725125,0.1309106,-2.0642044\Quadrupole=-34.0066373,8.7214
 548,25.2851825,-21.3447358,-5.4566773,-1.1723168\PG=C01 [X(C20H36N4O4)
 ]\\@


 THE WORLD IS NOT A HAMBURGER - YOU CAN'T HAVE IT YOUR WAY.
 Job cpu time:  0 days  2 hours 39 minutes 38.1 seconds.
 File lengths (MBytes):  RWF=    156 Int=      0 D2E=      0 Chk=     19 Scr=      1
 Normal termination of Gaussian 09 at Sat Dec  7 02:23:41 2019.
