 Entering Gaussian System, Link 0=g09
 Input=2.gau
 Output=2.log
 Initial command:
 /home/marie/Utilities//g09/l1.exe /tmp/g09/Gau-1965.inp -scrdir=/tmp/g09/
 Entering Link 1 = /home/marie/Utilities//g09/l1.exe PID=      1991.
  
 Copyright (c) 1988,1990,1992,1993,1995,1998,2003,2009, Gaussian, Inc.
                  All Rights Reserved.
  
 This is part of the Gaussian(R) 09 program.  It is based on
 the Gaussian(R) 03 system (copyright 2003, Gaussian, Inc.),
 the Gaussian(R) 98 system (copyright 1998, Gaussian, Inc.),
 the Gaussian(R) 94 system (copyright 1995, Gaussian, Inc.),
 the Gaussian 92(TM) system (copyright 1992, Gaussian, Inc.),
 the Gaussian 90(TM) system (copyright 1990, Gaussian, Inc.),
 the Gaussian 88(TM) system (copyright 1988, Gaussian, Inc.),
 the Gaussian 86(TM) system (copyright 1986, Carnegie Mellon
 University), and the Gaussian 82(TM) system (copyright 1983,
 Carnegie Mellon University). Gaussian is a federally registered
 trademark of Gaussian, Inc.
  
 This software contains proprietary and confidential information,
 including trade secrets, belonging to Gaussian, Inc.
  
 This software is provided under written license and may be
 used, copied, transmitted, or stored only in accord with that
 written license.
  
 The following legend is applicable only to US Government
 contracts under FAR:
  
                    RESTRICTED RIGHTS LEGEND
  
 Use, reproduction and disclosure by the US Government is
 subject to restrictions as set forth in subparagraphs (a)
 and (c) of the Commercial Computer Software - Restricted
 Rights clause in FAR 52.227-19.
  
 Gaussian, Inc.
 340 Quinnipiac St., Bldg. 40, Wallingford CT 06492
  
  
 ---------------------------------------------------------------
 Warning -- This program may not be used in any manner that
 competes with the business of Gaussian, Inc. or will provide
 assistance to any competitor of Gaussian, Inc.  The licensee
 of this program is prohibited from giving any competitor of
 Gaussian, Inc. access to this program.  By using this program,
 the user acknowledges that Gaussian, Inc. is engaged in the
 business of creating and licensing software in the field of
 computational chemistry and represents and warrants to the
 licensee that it is not a competitor of Gaussian, Inc. and that
 it will not use this program in any manner prohibited above.
 ---------------------------------------------------------------
  

 Cite this work as:
 Gaussian 09, Revision A.02,
 M. J. Frisch, G. W. Trucks, H. B. Schlegel, G. E. Scuseria, 
 M. A. Robb, J. R. Cheeseman, G. Scalmani, V. Barone, B. Mennucci, 
 G. A. Petersson, H. Nakatsuji, M. Caricato, X. Li, H. P. Hratchian, 
 A. F. Izmaylov, J. Bloino, G. Zheng, J. L. Sonnenberg, M. Hada, 
 M. Ehara, K. Toyota, R. Fukuda, J. Hasegawa, M. Ishida, T. Nakajima, 
 Y. Honda, O. Kitao, H. Nakai, T. Vreven, J. A. Montgomery, Jr., 
 J. E. Peralta, F. Ogliaro, M. Bearpark, J. J. Heyd, E. Brothers, 
 K. N. Kudin, V. N. Staroverov, R. Kobayashi, J. Normand, 
 K. Raghavachari, A. Rendell, J. C. Burant, S. S. Iyengar, J. Tomasi, 
 M. Cossi, N. Rega, J. M. Millam, M. Klene, J. E. Knox, J. B. Cross, 
 V. Bakken, C. Adamo, J. Jaramillo, R. Gomperts, R. E. Stratmann, 
 O. Yazyev, A. J. Austin, R. Cammi, C. Pomelli, J. W. Ochterski, 
 R. L. Martin, K. Morokuma, V. G. Zakrzewski, G. A. Voth, 
 P. Salvador, J. J. Dannenberg, S. Dapprich, A. D. Daniels, 
 O. Farkas, J. B. Foresman, J. V. Ortiz, J. Cioslowski, 
 and D. J. Fox, Gaussian, Inc., Wallingford CT, 2009.
 
 ******************************************
 Gaussian 09:  EM64L-G09RevA.02 11-Jun-2009
                 6-Dec-2019 
 ******************************************
 %chk=conf2
 ------------------------------------------------------------
 #HF/6-31G* SCF=tight Test Pop=MK iop(6/33=2) iop(6/42=6) opt
 ------------------------------------------------------------
 1/18=20,19=15,38=1/1,3;
 2/9=110,12=2,17=6,18=5,40=1/2;
 3/5=1,6=6,7=1,11=9,16=1,25=1,30=1,71=1/1,2,3;
 4//1;
 5/5=2,32=2,38=5/2;
 6/7=2,8=2,9=2,10=2,15=8,20=1,28=1,33=2,42=6/1,2;
 7//1,2,3,16;
 1/18=20,19=15/3(2);
 2/9=110/2;
 99//99;
 2/9=110/2;
 3/5=1,6=6,7=1,11=9,16=1,25=1,30=1,71=1/1,2,3;
 4/5=5,16=3/1;
 5/5=2,32=2,38=5/2;
 7//1,2,3,16;
 1/18=20,19=15/3(-5);
 2/9=110/2;
 6/7=2,8=2,9=2,10=2,15=8,19=2,20=1,28=1,33=2,42=6/1,2;
 99/9=1/99;
 ---------------------
 remark line goes here
 ---------------------
 Symbolic Z-matrix:
 Charge =  0 Multiplicity = 1
 C                    -4.692    -3.21     -0.718 
 N                    -4.527    -1.778    -0.69 
 C                    -4.477    -1.105     0.516 
 O                    -4.399    -1.704     1.592 
 C                    -4.364     0.454     0.433 
 C                    -5.274     1.057    -0.65 
 C                    -2.876     0.766     0.117 
 C                    -2.542     2.265     0.045 
 C                    -1.044     2.528    -0.138 
 C                    -0.529     2.073    -1.474 
 C                     0.296     1.044    -1.725 
 C                     0.865     0.067    -0.736 
 C                     2.383     0.233    -0.595 
 C                     2.95     -0.75      0.433 
 C                     4.486    -0.989     0.465 
 C                     4.708    -2.141     1.481 
 N                     5.254     0.168     0.973 
 C                     5.409     1.345     0.271 
 C                     6.364     2.309     0.926 
 O                     4.869     1.604    -0.797 
 C                     5.147    -1.502    -0.858 
 O                     6.339    -1.302    -1.104 
 N                     4.374    -2.331    -1.65 
 C                     4.891    -2.809    -2.908 
 N                    -4.676     0.956     1.79 
 C                    -5.962     1.042     2.281 
 C                    -6.022     1.321     3.76 
 O                    -6.979     0.903     1.611 
 H                    -4.005    -3.683    -0.011 
 H                    -5.722    -3.452    -0.443 
 H                    -4.485    -3.564    -1.731 
 H                    -4.809    -1.267    -1.516 
 H                    -5.433     2.129    -0.489 
 H                    -6.255     0.572    -0.679 
 H                    -4.841     0.935    -1.649 
 H                    -2.24      0.301     0.883 
 H                    -2.603     0.289    -0.832 
 H                    -3.097     2.737    -0.774 
 H                    -2.862     2.758     0.971 
 H                    -0.867     3.609    -0.066 
 H                    -0.484     2.082     0.69 
 H                    -0.851     2.678    -2.322 
 H                     0.592     0.878    -2.761 
 H                     0.389     0.159     0.245 
 H                     0.636    -0.945    -1.092 
 H                     2.855     0.087    -1.573 
 H                     2.582     1.258    -0.268 
 H                     2.628    -0.41      1.428 
 H                     2.451    -1.717     0.282 
 H                     4.184    -3.055     1.177 
 H                     4.356    -1.861     2.48 
 H                     5.772    -2.394     1.569 
 H                     6.067    -0.075     1.525 
 H                     7.341     2.23      0.442 
 H                     6.472     2.099     1.994 
 H                     5.978     3.326     0.816 
 H                     3.369    -2.272    -1.566 
 H                     4.921    -1.977    -3.616 
 H                     4.225    -3.591    -3.282 
 H                     5.899    -3.211    -2.774 
 H                    -4.004     0.657     2.489 
 H                    -6.823     2.039     3.958 
 H                    -5.084     1.749     4.125 
 H                    -6.223     0.388     4.293 
 

 GradGradGradGradGradGradGradGradGradGradGradGradGradGradGradGradGradGrad
 Berny optimization.
 Initialization pass.
                           ----------------------------
                           !    Initial Parameters    !
                           ! (Angstroms and Degrees)  !
 --------------------------                            --------------------------
 ! Name  Definition              Value          Derivative Info.                !
 --------------------------------------------------------------------------------
 ! R1    R(1,2)                  1.4417         estimate D2E/DX2                !
 ! R2    R(1,29)                 1.0934         estimate D2E/DX2                !
 ! R3    R(1,30)                 1.0932         estimate D2E/DX2                !
 ! R4    R(1,31)                 1.0929         estimate D2E/DX2                !
 ! R5    R(2,3)                  1.382          estimate D2E/DX2                !
 ! R6    R(2,32)                 1.0114         estimate D2E/DX2                !
 ! R7    R(3,4)                  1.234          estimate D2E/DX2                !
 ! R8    R(3,5)                  1.5653         estimate D2E/DX2                !
 ! R9    R(5,6)                  1.5377         estimate D2E/DX2                !
 ! R10   R(5,7)                  1.5529         estimate D2E/DX2                !
 ! R11   R(5,25)                 1.4801         estimate D2E/DX2                !
 ! R12   R(6,33)                 1.0956         estimate D2E/DX2                !
 ! R13   R(6,34)                 1.0947         estimate D2E/DX2                !
 ! R14   R(6,35)                 1.0956         estimate D2E/DX2                !
 ! R15   R(7,8)                  1.5374         estimate D2E/DX2                !
 ! R16   R(7,36)                 1.0989         estimate D2E/DX2                !
 ! R17   R(7,37)                 1.0967         estimate D2E/DX2                !
 ! R18   R(8,9)                  1.5319         estimate D2E/DX2                !
 ! R19   R(8,38)                 1.0962         estimate D2E/DX2                !
 ! R20   R(8,39)                 1.0968         estimate D2E/DX2                !
 ! R21   R(9,10)                 1.5024         estimate D2E/DX2                !
 ! R22   R(9,40)                 1.0978         estimate D2E/DX2                !
 ! R23   R(9,41)                 1.0946         estimate D2E/DX2                !
 ! R24   R(10,11)                1.3426         estimate D2E/DX2                !
 ! R25   R(10,42)                1.0903         estimate D2E/DX2                !
 ! R26   R(11,12)                1.5021         estimate D2E/DX2                !
 ! R27   R(11,43)                1.0902         estimate D2E/DX2                !
 ! R28   R(12,13)                1.5335         estimate D2E/DX2                !
 ! R29   R(12,44)                1.0943         estimate D2E/DX2                !
 ! R30   R(12,45)                1.097          estimate D2E/DX2                !
 ! R31   R(13,14)                1.5312         estimate D2E/DX2                !
 ! R32   R(13,46)                1.0957         estimate D2E/DX2                !
 ! R33   R(13,47)                1.0941         estimate D2E/DX2                !
 ! R34   R(14,15)                1.5548         estimate D2E/DX2                !
 ! R35   R(14,48)                1.0997         estimate D2E/DX2                !
 ! R36   R(14,49)                1.0986         estimate D2E/DX2                !
 ! R37   R(15,16)                1.552          estimate D2E/DX2                !
 ! R38   R(15,17)                1.4787         estimate D2E/DX2                !
 ! R39   R(15,21)                1.5654         estimate D2E/DX2                !
 ! R40   R(16,50)                1.0965         estimate D2E/DX2                !
 ! R41   R(16,51)                1.0956         estimate D2E/DX2                !
 ! R42   R(16,52)                1.0972         estimate D2E/DX2                !
 ! R43   R(17,18)                1.3792         estimate D2E/DX2                !
 ! R44   R(17,53)                1.0123         estimate D2E/DX2                !
 ! R45   R(18,19)                1.5068         estimate D2E/DX2                !
 ! R46   R(18,20)                1.2245         estimate D2E/DX2                !
 ! R47   R(19,54)                1.0932         estimate D2E/DX2                !
 ! R48   R(19,55)                1.0938         estimate D2E/DX2                !
 ! R49   R(19,56)                1.0933         estimate D2E/DX2                !
 ! R50   R(21,22)                1.2334         estimate D2E/DX2                !
 ! R51   R(21,23)                1.3828         estimate D2E/DX2                !
 ! R52   R(23,24)                1.4416         estimate D2E/DX2                !
 ! R53   R(23,57)                1.0102         estimate D2E/DX2                !
 ! R54   R(24,58)                1.0929         estimate D2E/DX2                !
 ! R55   R(24,59)                1.0931         estimate D2E/DX2                !
 ! R56   R(24,60)                1.0934         estimate D2E/DX2                !
 ! R57   R(25,26)                1.3792         estimate D2E/DX2                !
 ! R58   R(25,61)                1.0147         estimate D2E/DX2                !
 ! R59   R(26,27)                1.5063         estimate D2E/DX2                !
 ! R60   R(26,28)                1.2258         estimate D2E/DX2                !
 ! R61   R(27,62)                1.0938         estimate D2E/DX2                !
 ! R62   R(27,63)                1.0937         estimate D2E/DX2                !
 ! R63   R(27,64)                1.0932         estimate D2E/DX2                !
 ! A1    A(2,1,29)             110.1942         estimate D2E/DX2                !
 ! A2    A(2,1,30)             108.8332         estimate D2E/DX2                !
 ! A3    A(2,1,31)             108.5454         estimate D2E/DX2                !
 ! A4    A(29,1,30)            109.4854         estimate D2E/DX2                !
 ! A5    A(29,1,31)            109.8901         estimate D2E/DX2                !
 ! A6    A(30,1,31)            109.8725         estimate D2E/DX2                !
 ! A7    A(1,2,3)              120.3167         estimate D2E/DX2                !
 ! A8    A(1,2,32)             117.0042         estimate D2E/DX2                !
 ! A9    A(3,2,32)             118.4727         estimate D2E/DX2                !
 ! A10   A(2,3,4)              121.7924         estimate D2E/DX2                !
 ! A11   A(2,3,5)              116.191          estimate D2E/DX2                !
 ! A12   A(4,3,5)              121.6784         estimate D2E/DX2                !
 ! A13   A(3,5,6)              112.6552         estimate D2E/DX2                !
 ! A14   A(3,5,7)              106.265          estimate D2E/DX2                !
 ! A15   A(3,5,25)             105.9003         estimate D2E/DX2                !
 ! A16   A(6,5,7)              110.1794         estimate D2E/DX2                !
 ! A17   A(6,5,25)             112.8274         estimate D2E/DX2                !
 ! A18   A(7,5,25)             108.6879         estimate D2E/DX2                !
 ! A19   A(5,6,33)             111.4735         estimate D2E/DX2                !
 ! A20   A(5,6,34)             112.0387         estimate D2E/DX2                !
 ! A21   A(5,6,35)             111.3851         estimate D2E/DX2                !
 ! A22   A(33,6,34)            107.8982         estimate D2E/DX2                !
 ! A23   A(33,6,35)            107.4754         estimate D2E/DX2                !
 ! A24   A(34,6,35)            106.3            estimate D2E/DX2                !
 ! A25   A(5,7,8)              114.431          estimate D2E/DX2                !
 ! A26   A(5,7,36)             109.1314         estimate D2E/DX2                !
 ! A27   A(5,7,37)             109.1018         estimate D2E/DX2                !
 ! A28   A(8,7,36)             108.6324         estimate D2E/DX2                !
 ! A29   A(8,7,37)             109.2369         estimate D2E/DX2                !
 ! A30   A(36,7,37)            105.9674         estimate D2E/DX2                !
 ! A31   A(7,8,9)              112.6701         estimate D2E/DX2                !
 ! A32   A(7,8,38)             110.171          estimate D2E/DX2                !
 ! A33   A(7,8,39)             109.5929         estimate D2E/DX2                !
 ! A34   A(9,8,38)             109.3861         estimate D2E/DX2                !
 ! A35   A(9,8,39)             107.9989         estimate D2E/DX2                !
 ! A36   A(38,8,39)            106.8304         estimate D2E/DX2                !
 ! A37   A(8,9,10)             112.9199         estimate D2E/DX2                !
 ! A38   A(8,9,40)             108.5964         estimate D2E/DX2                !
 ! A39   A(8,9,41)             109.8754         estimate D2E/DX2                !
 ! A40   A(10,9,40)            107.5347         estimate D2E/DX2                !
 ! A41   A(10,9,41)            111.9567         estimate D2E/DX2                !
 ! A42   A(40,9,41)            105.6129         estimate D2E/DX2                !
 ! A43   A(9,10,11)            127.5184         estimate D2E/DX2                !
 ! A44   A(9,10,42)            114.9822         estimate D2E/DX2                !
 ! A45   A(11,10,42)           117.4747         estimate D2E/DX2                !
 ! A46   A(10,11,12)           127.458          estimate D2E/DX2                !
 ! A47   A(10,11,43)           117.4659         estimate D2E/DX2                !
 ! A48   A(12,11,43)           115.0744         estimate D2E/DX2                !
 ! A49   A(11,12,13)           111.4129         estimate D2E/DX2                !
 ! A50   A(11,12,44)           111.7645         estimate D2E/DX2                !
 ! A51   A(11,12,45)           107.8957         estimate D2E/DX2                !
 ! A52   A(13,12,44)           109.8196         estimate D2E/DX2                !
 ! A53   A(13,12,45)           109.6543         estimate D2E/DX2                !
 ! A54   A(44,12,45)           106.1228         estimate D2E/DX2                !
 ! A55   A(12,13,14)           111.0254         estimate D2E/DX2                !
 ! A56   A(12,13,46)           109.2635         estimate D2E/DX2                !
 ! A57   A(12,13,47)           107.994          estimate D2E/DX2                !
 ! A58   A(14,13,46)           110.7438         estimate D2E/DX2                !
 ! A59   A(14,13,47)           109.4761         estimate D2E/DX2                !
 ! A60   A(46,13,47)           108.2543         estimate D2E/DX2                !
 ! A61   A(13,14,15)           118.5757         estimate D2E/DX2                !
 ! A62   A(13,14,48)           107.4903         estimate D2E/DX2                !
 ! A63   A(13,14,49)           107.7347         estimate D2E/DX2                !
 ! A64   A(15,14,48)           108.5524         estimate D2E/DX2                !
 ! A65   A(15,14,49)           108.4362         estimate D2E/DX2                !
 ! A66   A(48,14,49)           105.2785         estimate D2E/DX2                !
 ! A67   A(14,15,16)           105.598          estimate D2E/DX2                !
 ! A68   A(14,15,17)           113.5712         estimate D2E/DX2                !
 ! A69   A(14,15,21)           116.7522         estimate D2E/DX2                !
 ! A70   A(16,15,17)           106.3556         estimate D2E/DX2                !
 ! A71   A(16,15,21)           104.4553         estimate D2E/DX2                !
 ! A72   A(17,15,21)           109.1146         estimate D2E/DX2                !
 ! A73   A(15,16,50)           111.6457         estimate D2E/DX2                !
 ! A74   A(15,16,51)           111.1783         estimate D2E/DX2                !
 ! A75   A(15,16,52)           111.2464         estimate D2E/DX2                !
 ! A76   A(50,16,51)           108.1973         estimate D2E/DX2                !
 ! A77   A(50,16,52)           107.0642         estimate D2E/DX2                !
 ! A78   A(51,16,52)           107.2994         estimate D2E/DX2                !
 ! A79   A(15,17,18)           123.4527         estimate D2E/DX2                !
 ! A80   A(15,17,53)           114.6225         estimate D2E/DX2                !
 ! A81   A(18,17,53)           113.0887         estimate D2E/DX2                !
 ! A82   A(17,18,19)           113.3257         estimate D2E/DX2                !
 ! A83   A(17,18,20)           125.093          estimate D2E/DX2                !
 ! A84   A(19,18,20)           121.5571         estimate D2E/DX2                !
 ! A85   A(18,19,54)           109.1324         estimate D2E/DX2                !
 ! A86   A(18,19,55)           111.3585         estimate D2E/DX2                !
 ! A87   A(18,19,56)           109.1239         estimate D2E/DX2                !
 ! A88   A(54,19,55)           109.2801         estimate D2E/DX2                !
 ! A89   A(54,19,56)           109.7676         estimate D2E/DX2                !
 ! A90   A(55,19,56)           108.1607         estimate D2E/DX2                !
 ! A91   A(15,21,22)           121.567          estimate D2E/DX2                !
 ! A92   A(15,21,23)           116.3913         estimate D2E/DX2                !
 ! A93   A(22,21,23)           121.5486         estimate D2E/DX2                !
 ! A94   A(21,23,24)           119.875          estimate D2E/DX2                !
 ! A95   A(21,23,57)           118.2613         estimate D2E/DX2                !
 ! A96   A(24,23,57)           116.6593         estimate D2E/DX2                !
 ! A97   A(23,24,58)           108.8282         estimate D2E/DX2                !
 ! A98   A(23,24,59)           108.4969         estimate D2E/DX2                !
 ! A99   A(23,24,60)           110.2157         estimate D2E/DX2                !
 ! A100  A(58,24,59)           109.8577         estimate D2E/DX2                !
 ! A101  A(58,24,60)           109.5099         estimate D2E/DX2                !
 ! A102  A(59,24,60)           109.9116         estimate D2E/DX2                !
 ! A103  A(5,25,26)            122.9612         estimate D2E/DX2                !
 ! A104  A(5,25,61)            113.081          estimate D2E/DX2                !
 ! A105  A(26,25,61)           112.9945         estimate D2E/DX2                !
 ! A106  A(25,26,27)           113.4681         estimate D2E/DX2                !
 ! A107  A(25,26,28)           124.8859         estimate D2E/DX2                !
 ! A108  A(27,26,28)           121.6448         estimate D2E/DX2                !
 ! A109  A(26,27,62)           109.1782         estimate D2E/DX2                !
 ! A110  A(26,27,63)           111.4689         estimate D2E/DX2                !
 ! A111  A(26,27,64)           109.1466         estimate D2E/DX2                !
 ! A112  A(62,27,63)           108.1053         estimate D2E/DX2                !
 ! A113  A(62,27,64)           109.7158         estimate D2E/DX2                !
 ! A114  A(63,27,64)           109.206          estimate D2E/DX2                !
 ! D1    D(29,1,2,3)           -47.1893         estimate D2E/DX2                !
 ! D2    D(29,1,2,32)          156.1985         estimate D2E/DX2                !
 ! D3    D(30,1,2,3)            72.875          estimate D2E/DX2                !
 ! D4    D(30,1,2,32)          -83.7372         estimate D2E/DX2                !
 ! D5    D(31,1,2,3)          -167.5705         estimate D2E/DX2                !
 ! D6    D(31,1,2,32)           35.8173         estimate D2E/DX2                !
 ! D7    D(1,2,3,4)              9.3807         estimate D2E/DX2                !
 ! D8    D(1,2,3,5)           -177.1933         estimate D2E/DX2                !
 ! D9    D(32,2,3,4)           165.6562         estimate D2E/DX2                !
 ! D10   D(32,2,3,5)           -20.9178         estimate D2E/DX2                !
 ! D11   D(2,3,5,6)             42.0344         estimate D2E/DX2                !
 ! D12   D(2,3,5,7)            -78.707          estimate D2E/DX2                !
 ! D13   D(2,3,5,25)           165.8153         estimate D2E/DX2                !
 ! D14   D(4,3,5,6)           -144.5315         estimate D2E/DX2                !
 ! D15   D(4,3,5,7)             94.7271         estimate D2E/DX2                !
 ! D16   D(4,3,5,25)           -20.7506         estimate D2E/DX2                !
 ! D17   D(3,5,6,33)           161.6753         estimate D2E/DX2                !
 ! D18   D(3,5,6,34)            40.6426         estimate D2E/DX2                !
 ! D19   D(3,5,6,35)           -78.2849         estimate D2E/DX2                !
 ! D20   D(7,5,6,33)           -79.8516         estimate D2E/DX2                !
 ! D21   D(7,5,6,34)           159.1157         estimate D2E/DX2                !
 ! D22   D(7,5,6,35)            40.1881         estimate D2E/DX2                !
 ! D23   D(25,5,6,33)           41.8216         estimate D2E/DX2                !
 ! D24   D(25,5,6,34)          -79.2112         estimate D2E/DX2                !
 ! D25   D(25,5,6,35)          161.8613         estimate D2E/DX2                !
 ! D26   D(3,5,7,8)           -177.8416         estimate D2E/DX2                !
 ! D27   D(3,5,7,36)           -55.9027         estimate D2E/DX2                !
 ! D28   D(3,5,7,37)            59.4553         estimate D2E/DX2                !
 ! D29   D(6,5,7,8)             59.8341         estimate D2E/DX2                !
 ! D30   D(6,5,7,36)          -178.227          estimate D2E/DX2                !
 ! D31   D(6,5,7,37)           -62.869          estimate D2E/DX2                !
 ! D32   D(25,5,7,8)           -64.2663         estimate D2E/DX2                !
 ! D33   D(25,5,7,36)           57.6726         estimate D2E/DX2                !
 ! D34   D(25,5,7,37)          173.0306         estimate D2E/DX2                !
 ! D35   D(3,5,25,26)          -77.61           estimate D2E/DX2                !
 ! D36   D(3,5,25,61)           63.8733         estimate D2E/DX2                !
 ! D37   D(6,5,25,26)           46.0628         estimate D2E/DX2                !
 ! D38   D(6,5,25,61)         -172.454          estimate D2E/DX2                !
 ! D39   D(7,5,25,26)          168.5751         estimate D2E/DX2                !
 ! D40   D(7,5,25,61)          -49.9417         estimate D2E/DX2                !
 ! D41   D(5,7,8,9)            174.6359         estimate D2E/DX2                !
 ! D42   D(5,7,8,38)           -62.9068         estimate D2E/DX2                !
 ! D43   D(5,7,8,39)            54.3624         estimate D2E/DX2                !
 ! D44   D(36,7,8,9)            52.4247         estimate D2E/DX2                !
 ! D45   D(36,7,8,38)          174.8819         estimate D2E/DX2                !
 ! D46   D(36,7,8,39)          -67.8488         estimate D2E/DX2                !
 ! D47   D(37,7,8,9)           -62.7343         estimate D2E/DX2                !
 ! D48   D(37,7,8,38)           59.723          estimate D2E/DX2                !
 ! D49   D(37,7,8,39)          176.9923         estimate D2E/DX2                !
 ! D50   D(7,8,9,10)            67.2057         estimate D2E/DX2                !
 ! D51   D(7,8,9,40)          -173.6248         estimate D2E/DX2                !
 ! D52   D(7,8,9,41)           -58.5637         estimate D2E/DX2                !
 ! D53   D(38,8,9,10)          -55.6916         estimate D2E/DX2                !
 ! D54   D(38,8,9,40)           63.478          estimate D2E/DX2                !
 ! D55   D(38,8,9,41)          178.539          estimate D2E/DX2                !
 ! D56   D(39,8,9,10)         -171.6081         estimate D2E/DX2                !
 ! D57   D(39,8,9,40)          -52.4386         estimate D2E/DX2                !
 ! D58   D(39,8,9,41)           62.6225         estimate D2E/DX2                !
 ! D59   D(8,9,10,11)         -110.3858         estimate D2E/DX2                !
 ! D60   D(8,9,10,42)           71.4867         estimate D2E/DX2                !
 ! D61   D(40,9,10,11)         129.8319         estimate D2E/DX2                !
 ! D62   D(40,9,10,42)         -48.2955         estimate D2E/DX2                !
 ! D63   D(41,9,10,11)          14.256          estimate D2E/DX2                !
 ! D64   D(41,9,10,42)        -163.8714         estimate D2E/DX2                !
 ! D65   D(9,10,11,12)           2.4171         estimate D2E/DX2                !
 ! D66   D(9,10,11,43)        -178.0933         estimate D2E/DX2                !
 ! D67   D(42,10,11,12)       -179.4961         estimate D2E/DX2                !
 ! D68   D(42,10,11,43)         -0.0064         estimate D2E/DX2                !
 ! D69   D(10,11,12,13)       -112.7748         estimate D2E/DX2                !
 ! D70   D(10,11,12,44)         10.5047         estimate D2E/DX2                !
 ! D71   D(10,11,12,45)        126.8088         estimate D2E/DX2                !
 ! D72   D(43,11,12,13)         67.7252         estimate D2E/DX2                !
 ! D73   D(43,11,12,44)       -168.9954         estimate D2E/DX2                !
 ! D74   D(43,11,12,45)        -52.6912         estimate D2E/DX2                !
 ! D75   D(11,12,13,14)        178.998          estimate D2E/DX2                !
 ! D76   D(11,12,13,46)        -58.5706         estimate D2E/DX2                !
 ! D77   D(11,12,13,47)         58.9708         estimate D2E/DX2                !
 ! D78   D(44,12,13,14)         54.6166         estimate D2E/DX2                !
 ! D79   D(44,12,13,46)        177.048          estimate D2E/DX2                !
 ! D80   D(44,12,13,47)        -65.4106         estimate D2E/DX2                !
 ! D81   D(45,12,13,14)        -61.6255         estimate D2E/DX2                !
 ! D82   D(45,12,13,46)         60.8059         estimate D2E/DX2                !
 ! D83   D(45,12,13,47)        178.3474         estimate D2E/DX2                !
 ! D84   D(12,13,14,15)        164.9302         estimate D2E/DX2                !
 ! D85   D(12,13,14,48)        -71.5999         estimate D2E/DX2                !
 ! D86   D(12,13,14,49)         41.4071         estimate D2E/DX2                !
 ! D87   D(46,13,14,15)         43.3612         estimate D2E/DX2                !
 ! D88   D(46,13,14,48)        166.8311         estimate D2E/DX2                !
 ! D89   D(46,13,14,49)        -80.1619         estimate D2E/DX2                !
 ! D90   D(47,13,14,15)        -75.9281         estimate D2E/DX2                !
 ! D91   D(47,13,14,48)         47.5418         estimate D2E/DX2                !
 ! D92   D(47,13,14,49)        160.5488         estimate D2E/DX2                !
 ! D93   D(13,14,15,16)       -173.4926         estimate D2E/DX2                !
 ! D94   D(13,14,15,17)         70.3539         estimate D2E/DX2                !
 ! D95   D(13,14,15,21)        -57.964          estimate D2E/DX2                !
 ! D96   D(48,14,15,16)         63.5654         estimate D2E/DX2                !
 ! D97   D(48,14,15,17)        -52.5881         estimate D2E/DX2                !
 ! D98   D(48,14,15,21)        179.094          estimate D2E/DX2                !
 ! D99   D(49,14,15,16)        -50.3177         estimate D2E/DX2                !
 ! D100  D(49,14,15,17)       -166.4712         estimate D2E/DX2                !
 ! D101  D(49,14,15,21)         65.211          estimate D2E/DX2                !
 ! D102  D(14,15,16,50)         59.9096         estimate D2E/DX2                !
 ! D103  D(14,15,16,51)        -61.0259         estimate D2E/DX2                !
 ! D104  D(14,15,16,52)        179.4493         estimate D2E/DX2                !
 ! D105  D(17,15,16,50)       -179.1185         estimate D2E/DX2                !
 ! D106  D(17,15,16,51)         59.9459         estimate D2E/DX2                !
 ! D107  D(17,15,16,52)        -59.5788         estimate D2E/DX2                !
 ! D108  D(21,15,16,50)        -63.7727         estimate D2E/DX2                !
 ! D109  D(21,15,16,51)        175.2917         estimate D2E/DX2                !
 ! D110  D(21,15,16,52)         55.767          estimate D2E/DX2                !
 ! D111  D(14,15,17,18)        -70.8336         estimate D2E/DX2                !
 ! D112  D(14,15,17,53)        144.0982         estimate D2E/DX2                !
 ! D113  D(16,15,17,18)        173.459          estimate D2E/DX2                !
 ! D114  D(16,15,17,53)         28.3908         estimate D2E/DX2                !
 ! D115  D(21,15,17,18)         61.3085         estimate D2E/DX2                !
 ! D116  D(21,15,17,53)        -83.7598         estimate D2E/DX2                !
 ! D117  D(14,15,21,22)        155.0877         estimate D2E/DX2                !
 ! D118  D(14,15,21,23)        -32.8515         estimate D2E/DX2                !
 ! D119  D(16,15,21,22)        -88.7504         estimate D2E/DX2                !
 ! D120  D(16,15,21,23)         83.3104         estimate D2E/DX2                !
 ! D121  D(17,15,21,22)         24.6474         estimate D2E/DX2                !
 ! D122  D(17,15,21,23)       -163.2918         estimate D2E/DX2                !
 ! D123  D(15,17,18,19)       -173.2571         estimate D2E/DX2                !
 ! D124  D(15,17,18,20)          4.9679         estimate D2E/DX2                !
 ! D125  D(53,17,18,19)        -27.7192         estimate D2E/DX2                !
 ! D126  D(53,17,18,20)        150.5058         estimate D2E/DX2                !
 ! D127  D(17,18,19,54)         98.9088         estimate D2E/DX2                !
 ! D128  D(17,18,19,55)        -21.8169         estimate D2E/DX2                !
 ! D129  D(17,18,19,56)       -141.1454         estimate D2E/DX2                !
 ! D130  D(20,18,19,54)        -79.3868         estimate D2E/DX2                !
 ! D131  D(20,18,19,55)        159.8875         estimate D2E/DX2                !
 ! D132  D(20,18,19,56)         40.559          estimate D2E/DX2                !
 ! D133  D(15,21,23,24)        177.8212         estimate D2E/DX2                !
 ! D134  D(15,21,23,57)         24.1479         estimate D2E/DX2                !
 ! D135  D(22,21,23,24)        -10.1164         estimate D2E/DX2                !
 ! D136  D(22,21,23,57)       -163.7897         estimate D2E/DX2                !
 ! D137  D(21,23,24,58)        -71.4233         estimate D2E/DX2                !
 ! D138  D(21,23,24,59)        169.0712         estimate D2E/DX2                !
 ! D139  D(21,23,24,60)         48.681          estimate D2E/DX2                !
 ! D140  D(57,23,24,58)         82.6583         estimate D2E/DX2                !
 ! D141  D(57,23,24,59)        -36.8472         estimate D2E/DX2                !
 ! D142  D(57,23,24,60)       -157.2374         estimate D2E/DX2                !
 ! D143  D(5,25,26,27)         168.7134         estimate D2E/DX2                !
 ! D144  D(5,25,26,28)         -10.8863         estimate D2E/DX2                !
 ! D145  D(61,25,26,27)         27.2009         estimate D2E/DX2                !
 ! D146  D(61,25,26,28)       -152.3988         estimate D2E/DX2                !
 ! D147  D(25,26,27,62)        139.3561         estimate D2E/DX2                !
 ! D148  D(25,26,27,63)         19.9929         estimate D2E/DX2                !
 ! D149  D(25,26,27,64)       -100.72           estimate D2E/DX2                !
 ! D150  D(28,26,27,62)        -41.0296         estimate D2E/DX2                !
 ! D151  D(28,26,27,63)       -160.3928         estimate D2E/DX2                !
 ! D152  D(28,26,27,64)         78.8943         estimate D2E/DX2                !
 --------------------------------------------------------------------------------
 Trust Radius=3.00D-01 FncErr=1.00D-07 GrdErr=1.00D-07
 Number of steps in this run= 339 maximum allowed number of steps= 384.
 GradGradGradGradGradGradGradGradGradGradGradGradGradGradGradGradGradGrad

 Stoichiometry    C20H36N4O4
 Framework group  C1[X(C20H36N4O4)]
 Deg. of freedom   186
 Full point group                 C1      NOp   1
 Largest Abelian subgroup         C1      NOp   1
 Largest concise Abelian subgroup C1      NOp   1
                         Standard orientation:                         
 ---------------------------------------------------------------------
 Center     Atomic      Atomic             Coordinates (Angstroms)
 Number     Number       Type             X           Y           Z
 ---------------------------------------------------------------------
      1          6           0        4.300354    3.799683    0.086734
      2          7           0        4.241723    2.461156   -0.445751
      3          6           0        4.403825    1.370992    0.387993
      4          8           0        4.431189    1.490022    1.615895
      5          6           0        4.390387   -0.034166   -0.301566
      6          6           0        5.184525   -0.055459   -1.618186
      7          6           0        2.898848   -0.372606   -0.570106
      8          6           0        2.664302   -1.753447   -1.204147
      9          6           0        1.177550   -2.100089   -1.330914
     10          6           0        0.454734   -1.225451   -2.315643
     11          6           0       -0.466998   -0.285635   -2.051778
     12          6           0       -0.963240    0.154320   -0.703967
     13          6           0       -2.432449   -0.232220   -0.494749
     14          6           0       -2.921825    0.198272    0.890801
     15          6           0       -4.452119    0.221977    1.164808
     16          6           0       -4.614077    0.852426    2.573690
     17          7           0       -5.060584   -1.123719    1.238347
     18          6           0       -5.226658   -1.943949    0.142080
     19          6           0       -6.013457   -3.192751    0.445043
     20          8           0       -4.820276   -1.700733   -0.987081
     21          6           0       -5.321516    1.127220    0.229339
     22          8           0       -6.518887    0.898938    0.040739
     23          7           0       -4.723740    2.284456   -0.234882
     24          6           0       -5.439527    3.149502   -1.139140
     25          7           0        4.918763   -0.983984    0.703153
     26          6           0        6.262480   -1.101177    0.991185
     27          6           0        6.542779   -1.924674    2.220887
     28          8           0        7.166466   -0.592779    0.337846
     29          1           0        3.684513    3.875047    0.987072
     30          1           0        5.338637    4.035829    0.334310
     31          1           0        3.932981    4.492847   -0.674117
     32          1           0        4.443812    2.349379   -1.430427
     33          1           0        5.438887   -1.078497   -1.916648
     34          1           0        6.115916    0.515188   -1.545393
     35          1           0        4.612027    0.393533   -2.437347
     36          1           0        2.342001   -0.321470    0.375824
     37          1           0        2.466328    0.400171   -1.216946
     38          1           0        3.134380   -1.799950   -2.193306
     39          1           0        3.141259   -2.526311   -0.589235
     40          1           0        1.088393   -3.136547   -1.681456
     41          1           0        0.705584   -2.081432   -0.343493
     42          1           0        0.699958   -1.409785   -3.361921
     43          1           0       -0.912244    0.234199   -2.900303
     44          1           0       -0.352808   -0.255162    0.106649
     45          1           0       -0.856522    1.244475   -0.644851
     46          1           0       -3.042313    0.225896   -1.281375
     47          1           0       -2.512556   -1.319402   -0.588406
     48          1           0       -2.444245   -0.461459    1.629707
     49          1           0       -2.517219    1.199536    1.092432
     50          1           0       -4.201877    1.867803    2.612268
     51          1           0       -4.110522    0.249502    3.337379
     52          1           0       -5.671303    0.923093    2.858522
     53          1           0       -5.805886   -1.213052    1.917513
     54          1           0       -7.050379   -3.048034    0.130597
     55          1           0       -5.989499   -3.429496    1.512641
     56          1           0       -5.575544   -4.033133   -0.100279
     57          1           0       -3.715024    2.317044   -0.279534
     58          1           0       -5.507132    2.661571   -2.114712
     59          1           0       -4.887263    4.088394   -1.231023
     60          1           0       -6.445618    3.345007   -0.758112
     61          1           0        4.328880   -1.062668    1.525001
     62          1           0        7.411726   -2.562621    2.035730
     63          1           0        5.695631   -2.568958    2.472864
     64          1           0        6.748438   -1.256081    3.060927
 ---------------------------------------------------------------------
 Rotational constants (GHZ):      0.2874996      0.0555627      0.0523443
 Standard basis: 6-31G(d) (6D, 7F)
 There are   492 symmetry adapted basis functions of A   symmetry.
 Integral buffers will be    131072 words long.
 Raffenetti 1 integral format.
 Two-electron integral symmetry is turned on.
   492 basis functions,   928 primitive gaussians,   492 cartesian basis functions
   108 alpha electrons      108 beta electrons
       nuclear repulsion energy      2668.8659521554 Hartrees.
 NAtoms=   64 NActive=   64 NUniq=   64 SFac= 7.50D-01 NAtFMM=   80 NAOKFM=F Big=T
 One-electron integrals computed using PRISM.
 NBasis=   492 RedAO= T  NBF=   492
 NBsUse=   492 1.00D-06 NBFU=   492
 Harris functional with IExCor=  205 diagonalized for initial guess.
 ExpMin= 1.61D-01 ExpMax= 5.48D+03 ExpMxC= 8.25D+02 IAcc=1 IRadAn=         1 AccDes= 0.00D+00
 HarFok:  IExCor=  205 AccDes= 0.00D+00 IRadAn=         1 IDoV= 1
 ScaDFX=  1.000000  1.000000  1.000000  1.000000
 FoFCou: FMM=F IPFlag=           0 FMFlag=      100000 FMFlg1=           1
         NFxFlg=           0 DoJE=T BraDBF=F KetDBF=T FulRan=T
         Omega=  0.000000  0.000000  1.000000  0.000000  0.000000 ICntrl=     500 IOpCl=  0
         NMat0=    1 NMatS0=    1 NMatT0=    0 NMatD0=    1 NMtDS0=    0 NMtDT0=    0
         I1Cent=           4 NGrid=           0.
 Petite list used in FoFCou.
 Initial guess orbital symmetries:
       Occupied  (A) (A) (A) (A) (A) (A) (A) (A) (A) (A) (A) (A)
                 (A) (A) (A) (A) (A) (A) (A) (A) (A) (A) (A) (A)
                 (A) (A) (A) (A) (A) (A) (A) (A) (A) (A) (A) (A)
                 (A) (A) (A) (A) (A) (A) (A) (A) (A) (A) (A) (A)
                 (A) (A) (A) (A) (A) (A) (A) (A) (A) (A) (A) (A)
                 (A) (A) (A) (A) (A) (A) (A) (A) (A) (A) (A) (A)
                 (A) (A) (A) (A) (A) (A) (A) (A) (A) (A) (A) (A)
                 (A) (A) (A) (A) (A) (A) (A) (A) (A) (A) (A) (A)
                 (A) (A) (A) (A) (A) (A) (A) (A) (A) (A) (A) (A)
       Virtual   (A) (A) (A) (A) (A) (A) (A) (A) (A) (A) (A) (A)
                 (A) (A) (A) (A) (A) (A) (A) (A) (A) (A) (A) (A)
                 (A) (A) (A) (A) (A) (A) (A) (A) (A) (A) (A) (A)
                 (A) (A) (A) (A) (A) (A) (A) (A) (A) (A) (A) (A)
                 (A) (A) (A) (A) (A) (A) (A) (A) (A) (A) (A) (A)
                 (A) (A) (A) (A) (A) (A) (A) (A) (A) (A) (A) (A)
                 (A) (A) (A) (A) (A) (A) (A) (A) (A) (A) (A) (A)
                 (A) (A) (A) (A) (A) (A) (A) (A) (A) (A) (A) (A)
                 (A) (A) (A) (A) (A) (A) (A) (A) (A) (A) (A) (A)
                 (A) (A) (A) (A) (A) (A) (A) (A) (A) (A) (A) (A)
                 (A) (A) (A) (A) (A) (A) (A) (A) (A) (A) (A) (A)
                 (A) (A) (A) (A) (A) (A) (A) (A) (A) (A) (A) (A)
                 (A) (A) (A) (A) (A) (A) (A) (A) (A) (A) (A) (A)
                 (A) (A) (A) (A) (A) (A) (A) (A) (A) (A) (A) (A)
                 (A) (A) (A) (A) (A) (A) (A) (A) (A) (A) (A) (A)
                 (A) (A) (A) (A) (A) (A) (A) (A) (A) (A) (A) (A)
                 (A) (A) (A) (A) (A) (A) (A) (A) (A) (A) (A) (A)
                 (A) (A) (A) (A) (A) (A) (A) (A) (A) (A) (A) (A)
                 (A) (A) (A) (A) (A) (A) (A) (A) (A) (A) (A) (A)
                 (A) (A) (A) (A) (A) (A) (A) (A) (A) (A) (A) (A)
                 (A) (A) (A) (A) (A) (A) (A) (A) (A) (A) (A) (A)
                 (A) (A) (A) (A) (A) (A) (A) (A) (A) (A) (A) (A)
                 (A) (A) (A) (A) (A) (A) (A) (A) (A) (A) (A) (A)
                 (A) (A) (A) (A) (A) (A) (A) (A) (A) (A) (A) (A)
                 (A) (A) (A) (A) (A) (A) (A) (A) (A) (A) (A) (A)
                 (A) (A) (A) (A) (A) (A) (A) (A) (A) (A) (A) (A)
                 (A) (A) (A) (A) (A) (A) (A) (A) (A) (A) (A) (A)
                 (A) (A) (A) (A) (A) (A) (A) (A) (A) (A) (A) (A)
                 (A) (A) (A) (A) (A) (A) (A) (A) (A) (A) (A) (A)
                 (A) (A) (A) (A) (A) (A) (A) (A) (A) (A) (A) (A)
                 (A) (A) (A) (A) (A) (A) (A) (A) (A) (A) (A) (A)
                 (A) (A) (A) (A) (A) (A) (A) (A) (A) (A) (A) (A)
 The electronic state of the initial guess is 1-A.
 Requested convergence on RMS density matrix=1.00D-08 within 128 cycles.
 Requested convergence on MAX density matrix=1.00D-06.
 Requested convergence on             energy=1.00D-06.
 No special actions if energy rises.
 Integral accuracy reduced to 1.0D-05 until final iterations.
 Initial convergence to 1.0D-05 achieved.  Increase integral accuracy.
 SCF Done:  E(RHF) =  -1295.59719237     A.U. after   14 cycles
             Convg  =    0.7825D-08             -V/T =  2.0024

 **********************************************************************

            Population analysis using the SCF density.

 **********************************************************************

 Orbital symmetries:
 BldTbl:  Degeneracy threshold= 1.00D-02
       Occupied  (A) (A) (A) (A) (A) (A) (A) (A) (A) (A) (A) (A)
                 (A) (A) (A) (A) (A) (A) (A) (A) (A) (A) (A) (A)
                 (A) (A) (A) (A) (A) (A) (A) (A) (A) (A) (A) (A)
                 (A) (A) (A) (A) (A) (A) (A) (A) (A) (A) (A) (A)
                 (A) (A) (A) (A) (A) (A) (A) (A) (A) (A) (A) (A)
                 (A) (A) (A) (A) (A) (A) (A) (A) (A) (A) (A) (A)
                 (A) (A) (A) (A) (A) (A) (A) (A) (A) (A) (A) (A)
                 (A) (A) (A) (A) (A) (A) (A) (A) (A) (A) (A) (A)
                 (A) (A) (A) (A) (A) (A) (A) (A) (A) (A) (A) (A)
       Virtual   (A) (A) (A) (A) (A) (A) (A) (A) (A) (A) (A) (A)
                 (A) (A) (A) (A) (A) (A) (A) (A) (A) (A) (A) (A)
                 (A) (A) (A) (A) (A) (A) (A) (A) (A) (A) (A) (A)
                 (A) (A) (A) (A) (A) (A) (A) (A) (A) (A) (A) (A)
                 (A) (A) (A) (A) (A) (A) (A) (A) (A) (A) (A) (A)
                 (A) (A) (A) (A) (A) (A) (A) (A) (A) (A) (A) (A)
                 (A) (A) (A) (A) (A) (A) (A) (A) (A) (A) (A) (A)
                 (A) (A) (A) (A) (A) (A) (A) (A) (A) (A) (A) (A)
                 (A) (A) (A) (A) (A) (A) (A) (A) (A) (A) (A) (A)
                 (A) (A) (A) (A) (A) (A) (A) (A) (A) (A) (A) (A)
                 (A) (A) (A) (A) (A) (A) (A) (A) (A) (A) (A) (A)
                 (A) (A) (A) (A) (A) (A) (A) (A) (A) (A) (A) (A)
                 (A) (A) (A) (A) (A) (A) (A) (A) (A) (A) (A) (A)
                 (A) (A) (A) (A) (A) (A) (A) (A) (A) (A) (A) (A)
                 (A) (A) (A) (A) (A) (A) (A) (A) (A) (A) (A) (A)
                 (A) (A) (A) (A) (A) (A) (A) (A) (A) (A) (A) (A)
                 (A) (A) (A) (A) (A) (A) (A) (A) (A) (A) (A) (A)
                 (A) (A) (A) (A) (A) (A) (A) (A) (A) (A) (A) (A)
                 (A) (A) (A) (A) (A) (A) (A) (A) (A) (A) (A) (A)
                 (A) (A) (A) (A) (A) (A) (A) (A) (A) (A) (A) (A)
                 (A) (A) (A) (A) (A) (A) (A) (A) (A) (A) (A) (A)
                 (A) (A) (A) (A) (A) (A) (A) (A) (A) (A) (A) (A)
                 (A) (A) (A) (A) (A) (A) (A) (A) (A) (A) (A) (A)
                 (A) (A) (A) (A) (A) (A) (A) (A) (A) (A) (A) (A)
                 (A) (A) (A) (A) (A) (A) (A) (A) (A) (A) (A) (A)
                 (A) (A) (A) (A) (A) (A) (A) (A) (A) (A) (A) (A)
                 (A) (A) (A) (A) (A) (A) (A) (A) (A) (A) (A) (A)
                 (A) (A) (A) (A) (A) (A) (A) (A) (A) (A) (A) (A)
                 (A) (A) (A) (A) (A) (A) (A) (A) (A) (A) (A) (A)
                 (A) (A) (A) (A) (A) (A) (A) (A) (A) (A) (A) (A)
                 (A) (A) (A) (A) (A) (A) (A) (A) (A) (A) (A) (A)
                 (A) (A) (A) (A) (A) (A) (A) (A) (A) (A) (A) (A)
 The electronic state is 1-A.
 Alpha  occ. eigenvalues --  -20.52977 -20.52659 -20.52507 -20.52189 -15.58953
 Alpha  occ. eigenvalues --  -15.58877 -15.58814 -15.58284 -11.35456 -11.35318
 Alpha  occ. eigenvalues --  -11.35205 -11.34980 -11.30230 -11.29662 -11.25977
 Alpha  occ. eigenvalues --  -11.25792 -11.24078 -11.23993 -11.23708 -11.23306
 Alpha  occ. eigenvalues --  -11.23043 -11.22870 -11.22840 -11.22799 -11.22704
 Alpha  occ. eigenvalues --  -11.22696 -11.22634 -11.21720  -1.37804  -1.37751
 Alpha  occ. eigenvalues --   -1.36667  -1.36666  -1.23221  -1.22837  -1.22513
 Alpha  occ. eigenvalues --   -1.22452  -1.10885  -1.09350  -1.07312  -1.04526
 Alpha  occ. eigenvalues --   -1.00671  -0.99069  -0.98652  -0.95272  -0.94971
 Alpha  occ. eigenvalues --   -0.94603  -0.91585  -0.86933  -0.85430  -0.81720
 Alpha  occ. eigenvalues --   -0.80365  -0.79328  -0.79051  -0.76302  -0.75470
 Alpha  occ. eigenvalues --   -0.72713  -0.71495  -0.71230  -0.67552  -0.67035
 Alpha  occ. eigenvalues --   -0.66555  -0.65061  -0.65018  -0.63381  -0.63075
 Alpha  occ. eigenvalues --   -0.62571  -0.62038  -0.61804  -0.61718  -0.61025
 Alpha  occ. eigenvalues --   -0.60905  -0.59494  -0.59366  -0.58512  -0.58335
 Alpha  occ. eigenvalues --   -0.57275  -0.57000  -0.56476  -0.56131  -0.55565
 Alpha  occ. eigenvalues --   -0.55451  -0.55021  -0.54625  -0.54512  -0.53607
 Alpha  occ. eigenvalues --   -0.53254  -0.52933  -0.52409  -0.51884  -0.51168
 Alpha  occ. eigenvalues --   -0.50309  -0.49957  -0.49709  -0.48790  -0.48291
 Alpha  occ. eigenvalues --   -0.47733  -0.47339  -0.46610  -0.45149  -0.42224
 Alpha  occ. eigenvalues --   -0.42031  -0.41381  -0.41119  -0.39226  -0.39048
 Alpha  occ. eigenvalues --   -0.38670  -0.38455  -0.34088
 Alpha virt. eigenvalues --    0.17376   0.18283   0.18829   0.19462   0.19532
 Alpha virt. eigenvalues --    0.19835   0.20937   0.22186   0.22748   0.23811
 Alpha virt. eigenvalues --    0.24532   0.25322   0.26025   0.26280   0.26500
 Alpha virt. eigenvalues --    0.27291   0.28220   0.28620   0.28796   0.28905
 Alpha virt. eigenvalues --    0.29550   0.30508   0.30574   0.30847   0.30960
 Alpha virt. eigenvalues --    0.31445   0.31613   0.31788   0.32240   0.32581
 Alpha virt. eigenvalues --    0.33114   0.33433   0.33818   0.34105   0.34458
 Alpha virt. eigenvalues --    0.34667   0.34884   0.35064   0.35486   0.36892
 Alpha virt. eigenvalues --    0.37041   0.38148   0.38532   0.38838   0.39108
 Alpha virt. eigenvalues --    0.40210   0.40393   0.41180   0.41805   0.42913
 Alpha virt. eigenvalues --    0.43020   0.43624   0.45056   0.45400   0.46142
 Alpha virt. eigenvalues --    0.47685   0.47805   0.48208   0.50694   0.52451
 Alpha virt. eigenvalues --    0.54185   0.55459   0.55697   0.59552   0.60000
 Alpha virt. eigenvalues --    0.60657   0.62538   0.63304   0.68763   0.69690
 Alpha virt. eigenvalues --    0.70450   0.71806   0.72344   0.72543   0.73698
 Alpha virt. eigenvalues --    0.74001   0.74550   0.75263   0.75925   0.76306
 Alpha virt. eigenvalues --    0.76432   0.76964   0.77067   0.77714   0.78789
 Alpha virt. eigenvalues --    0.79487   0.80663   0.81510   0.81790   0.82379
 Alpha virt. eigenvalues --    0.82750   0.83960   0.84333   0.85044   0.85463
 Alpha virt. eigenvalues --    0.86783   0.87492   0.88846   0.89412   0.89738
 Alpha virt. eigenvalues --    0.90540   0.91080   0.92453   0.92845   0.93442
 Alpha virt. eigenvalues --    0.94395   0.95074   0.96081   0.96705   0.96971
 Alpha virt. eigenvalues --    0.98015   0.98230   0.99095   0.99254   0.99636
 Alpha virt. eigenvalues --    0.99745   1.00769   1.02063   1.02204   1.03215
 Alpha virt. eigenvalues --    1.04012   1.04793   1.05609   1.06060   1.07506
 Alpha virt. eigenvalues --    1.07841   1.08649   1.09096   1.09618   1.09929
 Alpha virt. eigenvalues --    1.10917   1.11371   1.12465   1.12669   1.13172
 Alpha virt. eigenvalues --    1.13497   1.13699   1.14119   1.14179   1.14523
 Alpha virt. eigenvalues --    1.15043   1.15228   1.15621   1.15801   1.16221
 Alpha virt. eigenvalues --    1.17217   1.17983   1.18213   1.18481   1.18915
 Alpha virt. eigenvalues --    1.19050   1.19376   1.19835   1.19993   1.20305
 Alpha virt. eigenvalues --    1.20889   1.20961   1.21331   1.21799   1.22022
 Alpha virt. eigenvalues --    1.22212   1.22655   1.23217   1.24281   1.24564
 Alpha virt. eigenvalues --    1.25101   1.26021   1.26667   1.26844   1.27538
 Alpha virt. eigenvalues --    1.28070   1.28701   1.29712   1.30090   1.31554
 Alpha virt. eigenvalues --    1.32001   1.32721   1.34284   1.35105   1.35732
 Alpha virt. eigenvalues --    1.35816   1.37814   1.39480   1.39852   1.40772
 Alpha virt. eigenvalues --    1.42212   1.42989   1.43739   1.45006   1.45693
 Alpha virt. eigenvalues --    1.47435   1.50209   1.51266   1.53034   1.53250
 Alpha virt. eigenvalues --    1.55271   1.56005   1.58335   1.59327   1.60831
 Alpha virt. eigenvalues --    1.62008   1.64632   1.66369   1.68104   1.68742
 Alpha virt. eigenvalues --    1.69491   1.71267   1.71951   1.73015   1.74289
 Alpha virt. eigenvalues --    1.74907   1.75860   1.77617   1.78767   1.79546
 Alpha virt. eigenvalues --    1.81070   1.81995   1.82555   1.85247   1.86078
 Alpha virt. eigenvalues --    1.88438   1.89682   1.91082   1.91685   1.93194
 Alpha virt. eigenvalues --    1.96400   1.96820   1.97650   1.98117   1.99519
 Alpha virt. eigenvalues --    2.00467   2.02721   2.03465   2.05169   2.06845
 Alpha virt. eigenvalues --    2.07943   2.08211   2.08485   2.09887   2.10004
 Alpha virt. eigenvalues --    2.11771   2.12580   2.13514   2.14080   2.15064
 Alpha virt. eigenvalues --    2.15583   2.16323   2.16812   2.17993   2.18869
 Alpha virt. eigenvalues --    2.19187   2.19539   2.19983   2.21347   2.22265
 Alpha virt. eigenvalues --    2.23134   2.24135   2.24450   2.24899   2.26000
 Alpha virt. eigenvalues --    2.26620   2.28043   2.28379   2.28815   2.29989
 Alpha virt. eigenvalues --    2.31400   2.31576   2.32292   2.32643   2.34029
 Alpha virt. eigenvalues --    2.34085   2.34936   2.36024   2.36269   2.37449
 Alpha virt. eigenvalues --    2.38253   2.39679   2.40205   2.41495   2.42498
 Alpha virt. eigenvalues --    2.43168   2.44359   2.45650   2.46440   2.49491
 Alpha virt. eigenvalues --    2.49717   2.51748   2.52884   2.53703   2.53965
 Alpha virt. eigenvalues --    2.54329   2.56112   2.56613   2.57710   2.58600
 Alpha virt. eigenvalues --    2.59476   2.60655   2.61236   2.61837   2.62451
 Alpha virt. eigenvalues --    2.63712   2.65567   2.66408   2.67367   2.68384
 Alpha virt. eigenvalues --    2.69259   2.69302   2.71140   2.72553   2.73074
 Alpha virt. eigenvalues --    2.73834   2.74449   2.75898   2.77376   2.79042
 Alpha virt. eigenvalues --    2.79987   2.80665   2.82330   2.82909   2.84350
 Alpha virt. eigenvalues --    2.86563   2.88040   2.90503   2.91768   2.92683
 Alpha virt. eigenvalues --    2.94120   2.95938   2.96441   2.97495   2.99215
 Alpha virt. eigenvalues --    2.99936   3.00460   3.03453   3.04135   3.06231
 Alpha virt. eigenvalues --    3.07650   3.10333   3.11405   3.13547   3.14265
 Alpha virt. eigenvalues --    3.18951   3.19448   3.20834   3.25859   3.26168
 Alpha virt. eigenvalues --    3.29533   3.30658   3.37414   3.38082   3.39186
 Alpha virt. eigenvalues --    3.39988   3.41025   3.47766   3.48449   3.53937
 Alpha virt. eigenvalues --    3.54041   4.33899   4.34114   4.46774   4.47524
 Alpha virt. eigenvalues --    4.49141   4.49905   4.54644   4.56983   4.58561
 Alpha virt. eigenvalues --    4.61849   4.62760   4.64266   4.65775   4.69567
 Alpha virt. eigenvalues --    4.70079   4.72623   4.74408   4.78893   4.83886
 Alpha virt. eigenvalues --    4.85663   4.87619   4.92394   4.93662   4.94421
 Alpha virt. eigenvalues --    4.95300   5.00981   5.18176   5.18632
          Condensed to atoms (all electrons):
 Mulliken atomic charges:
              1
     1  C   -0.276293
     2  N   -0.795450
     3  C    0.795756
     4  O   -0.647960
     5  C    0.101901
     6  C   -0.514870
     7  C   -0.320009
     8  C   -0.310932
     9  C   -0.350799
    10  C   -0.176724
    11  C   -0.158613
    12  C   -0.354177
    13  C   -0.300759
    14  C   -0.321159
    15  C    0.100296
    16  C   -0.504852
    17  N   -0.798102
    18  C    0.777406
    19  C   -0.588583
    20  O   -0.615191
    21  C    0.809373
    22  O   -0.642836
    23  N   -0.797059
    24  C   -0.277983
    25  N   -0.788380
    26  C    0.773145
    27  C   -0.586656
    28  O   -0.623453
    29  H    0.205192
    30  H    0.177726
    31  H    0.165943
    32  H    0.392533
    33  H    0.199223
    34  H    0.220847
    35  H    0.147380
    36  H    0.167234
    37  H    0.190755
    38  H    0.164680
    39  H    0.177618
    40  H    0.174997
    41  H    0.167597
    42  H    0.175573
    43  H    0.176869
    44  H    0.165235
    45  H    0.149405
    46  H    0.173852
    47  H    0.199716
    48  H    0.183235
    49  H    0.150469
    50  H    0.187768
    51  H    0.184070
    52  H    0.185752
    53  H    0.390422
    54  H    0.213452
    55  H    0.172185
    56  H    0.208744
    57  H    0.390618
    58  H    0.179095
    59  H    0.164713
    60  H    0.207340
    61  H    0.390492
    62  H    0.207710
    63  H    0.171931
    64  H    0.212592
 Sum of Mulliken atomic charges =   0.00000
 Mulliken charges with hydrogens summed into heavy atoms:
              1
     1  C    0.272568
     2  N   -0.402916
     3  C    0.795756
     4  O   -0.647960
     5  C    0.101901
     6  C    0.052580
     7  C    0.037980
     8  C    0.031366
     9  C   -0.008205
    10  C   -0.001151
    11  C    0.018255
    12  C   -0.039537
    13  C    0.072809
    14  C    0.012545
    15  C    0.100296
    16  C    0.052738
    17  N   -0.407680
    18  C    0.777406
    19  C    0.005798
    20  O   -0.615191
    21  C    0.809373
    22  O   -0.642836
    23  N   -0.406441
    24  C    0.273165
    25  N   -0.397888
    26  C    0.773145
    27  C    0.005577
    28  O   -0.623453
 Sum of Mulliken charges with hydrogens summed into heavy atoms =   0.00000
 DipInt: DoE/N= T F RetVal/Mat= T F Init=T NMatP=  1 IDeriv=0 Min/MaxMlt=  0  4
 Entering OneElI...
 OneElI was handed    32936476 working-precision words.
 Multipole integrals L=0 to 4 MinM= 0 MaxM= 0.
 Requested accuracy = 0.1000D-12
 PrsmSu:  NPrtUS=   1 ThrOK=F IAlg=1
 PRISM was handed    32079861 working-precision words and 10229 shell-pairs
 IPart=  0 NShTot=       10229 NBatch=          73 AvBLen=       140.1
 Electronic moments (au):
       -216.00000000         -0.44347940          0.23063611          0.48313619
     -16591.88972945      -2517.18002043      -1393.41288712         -0.45658712
        -17.34612928        -12.32611187      -4193.35997840      -3000.23966766
       -455.71105952       2068.16107783       1519.96826495     -11448.53428866
       -873.83879655        768.55380072        381.67575797         67.32146034
   -1848059.32295134     -79985.64484252     -25283.55373675      42820.95787511
     -55985.61221204     -29316.79534549       5166.91547411       3274.26114733
      -1568.74208664    -214230.23575998     -96620.57709487     -12335.61893180
      35036.36631847     -10521.01773208      11646.70707991
 Electronic spatial extent (au):  <R**2>=          20502.4826
 DipInt: DoE/N= F T RetVal/Mat= T F Init=T NMatP=  1 IDeriv=0 Min/MaxMlt=  0  4
 Nuclear    moments (au):
        216.00000000          0.00000000          0.00000000          0.00000000
      16423.28800106       2402.98273892       1269.50436828          0.00000000
          0.00000000          0.00000000       3963.37596232       3049.54373493
        468.26271499      -2077.27320406      -1594.55893455      11557.67425719
        883.06112669       -773.03201146       -390.01121861        -80.74065177
    1779689.89410959      71760.04862070      20465.61484580     -41602.43602563
      54841.08275084      29642.29766441      -5334.42251948      -3331.91121394
       1447.64055582     204555.62713235      86818.28675184      10054.98773107
     -36240.81021555      10511.73126067     -11886.82582527
 Total      moments (au):
          0.00000000         -0.44347940          0.23063611          0.48313619
       -168.60172839       -114.19728151       -123.90851884         -0.45658712
        -17.34612928        -12.32611187       -229.98401609         49.30406726
         12.55165547         -9.11212624        -74.59066960        109.13996853
          9.22233014         -4.47821074         -8.33546064        -13.41919143
     -68369.42884175      -8225.59622182      -4817.93889095       1218.52184948
      -1144.52946120        325.50231891       -167.50704537        -57.65006661
       -121.10153082      -9674.60862763      -9802.29034303      -2280.63120073
      -1204.44389708         -9.28647141       -240.11874536
 Traceless Quadrup. (au):
        -33.03255214         21.37189474         11.66065740         -0.45658712
        -17.34612928        -12.32611187
 Charge=              0.0000 electrons
 Dipole moment (field-independent basis, Debye):
    X=             -1.1272    Y=              0.5862    Z=              1.2280  Tot=              1.7670
 Quadrupole moment (field-independent basis, Debye-Ang):
   XX=           -226.7751   YY=           -153.5992   ZZ=           -166.6612
   XY=             -0.6141   XZ=            -23.3311   YZ=            -16.5790
 Traceless Quadrupole moment (field-independent basis, Debye-Ang):
   XX=            -44.4299   YY=             28.7459   ZZ=             15.6840
   XY=             -0.6141   XZ=            -23.3311   YZ=            -16.5790
 Octapole moment (field-independent basis, Debye-Ang**2):
  XXX=           -163.6938  YYY=             35.0927  ZZZ=              8.9338  XYY=             -6.4857
  XXY=            -53.0908  XXZ=             77.6816  XZZ=              6.5641  YZZ=             -3.1874
  YYZ=             -5.9329  XYZ=             -9.5513
 Hexadecapole moment (field-independent basis, Debye-Ang**3):
 XXXX=         -25751.2036 YYYY=          -3098.1538 ZZZZ=          -1814.6667 XXXY=            458.9537
 XXXZ=           -431.0846 YYYX=            122.5998 YYYZ=            -63.0912 ZZZX=            -21.7138
 ZZZY=            -45.6126 XXYY=          -3643.9213 XXZZ=          -3692.0123 YYZZ=           -858.9950
 XXYZ=           -453.6513 YYXZ=             -3.4977 ZZXY=            -90.4402
 N-N= 2.668865952155D+03 E-N=-8.368389538745D+03  KE= 1.292503365794D+03
 Entering OneElI...
 OneElI was handed    32450256 working-precision words.
 Calculate electrostatic properties
    NBasis =   492  MinDer = 0  MaxDer = 0
    NGrid  =    64  NMatD  =   1
 Requested accuracy = 0.1000D-12
 PrsmSu:  NPrtUS=   1 ThrOK=F IAlg=1
 PRISM was handed    31698562 working-precision words and  8499 shell-pairs
 IPart=  0 NShTot=      543936 NBatch=        8499 AvBLen=        64.0
 --------------------------------------------------------
       Center         ----      EFG at Nuclei      ----
                      3XX-RR        3YY-RR        3ZZ-RR
 --------------------------------------------------------
     1   Atom        0.139874     -0.240278      0.100403
     2   Atom        0.993843     -0.517791     -0.476052
     3   Atom       -0.578168      0.264219      0.313949
     4   Atom       -0.697118      1.639070     -0.941952
     5   Atom        0.114048     -0.106559     -0.007489
     6   Atom        0.043101      0.041732     -0.084833
     7   Atom       -0.072737      0.042117      0.030619
     8   Atom       -0.006824     -0.015545      0.022369
     9   Atom       -0.007296      0.002406      0.004890
    10   Atom       -0.050029     -0.033742      0.083771
    11   Atom       -0.056884     -0.033854      0.090737
    12   Atom        0.025854     -0.010238     -0.015616
    13   Atom       -0.030783      0.063336     -0.032554
    14   Atom       -0.084913      0.023541      0.061372
    15   Atom        0.089413     -0.200874      0.111461
    16   Atom        0.040649      0.031023     -0.071672
    17   Atom        0.284289     -0.200493     -0.083796
    18   Atom       -0.323334      0.112763      0.210571
    19   Atom        0.013067     -0.029993      0.016926
    20   Atom       -0.405131      1.144582     -0.739452
    21   Atom        0.302947     -0.014952     -0.287994
    22   Atom       -0.931427      0.947682     -0.016255
    23   Atom       -0.469918     -0.074318      0.544236
    24   Atom        0.065496     -0.040877     -0.024619
    25   Atom       -0.429103      0.641303     -0.212200
    26   Atom        0.199335     -0.261360      0.062025
    27   Atom        0.030032     -0.011925     -0.018107
    28   Atom        0.213820     -0.378325      0.164505
    29   Atom        0.010680      0.133481     -0.144161
    30   Atom       -0.247949      0.116085      0.131864
    31   Atom        0.108806     -0.040170     -0.068637
    32   Atom        0.214914      0.147797     -0.362711
    33   Atom        0.128647     -0.238249      0.109602
    34   Atom       -0.164184      0.024737      0.139447
    35   Atom        0.023582      0.073669     -0.097251
    36   Atom        0.030913      0.145593     -0.176507
    37   Atom        0.076678     -0.072598     -0.004080
    38   Atom        0.064337      0.145858     -0.210195
    39   Atom        0.064996     -0.074259      0.009263
    40   Atom        0.142413     -0.243136      0.100723
    41   Atom        0.063900      0.149842     -0.213742
    42   Atom        0.129574      0.138073     -0.267646
    43   Atom        0.078534      0.049726     -0.128260
    44   Atom        0.008483      0.087566     -0.096049
    45   Atom        0.144158     -0.288451      0.144293
    46   Atom        0.010607      0.071876     -0.082484
    47   Atom        0.144398     -0.283714      0.139316
    48   Atom        0.060698     -0.006537     -0.054161
    49   Atom        0.084660     -0.216742      0.132082
    50   Atom        0.086722     -0.225945      0.139223
    51   Atom        0.055027      0.011925     -0.066952
    52   Atom       -0.258295      0.144600      0.113694
    53   Atom       -0.099256      0.166807     -0.067551
    54   Atom       -0.254569      0.137558      0.117011
    55   Atom        0.154235      0.121594     -0.275829
    56   Atom        0.077563     -0.118796      0.041233
    57   Atom       -0.395426      0.182471      0.212955
    58   Atom        0.150100      0.060180     -0.210280
    59   Atom        0.032212     -0.180133      0.147921
    60   Atom       -0.222439      0.133481      0.088958
    61   Atom       -0.029080      0.215815     -0.186735
    62   Atom       -0.130756     -0.001759      0.132515
    63   Atom       -0.122733     -0.002794      0.125527
    64   Atom        0.138535     -0.019446     -0.119089
 --------------------------------------------------------
                        XY            XZ            YZ
 --------------------------------------------------------
     1   Atom       -0.008537     -0.022866     -0.124293
     2   Atom        0.103869      0.121490      0.015570
     3   Atom       -0.040994      0.013723      0.111882
     4   Atom       -0.151850      0.007549     -0.224553
     5   Atom        0.096354     -0.096739      0.121559
     6   Atom        0.027345      0.048864      0.017227
     7   Atom       -0.025297     -0.007554     -0.021175
     8   Atom       -0.019324     -0.000753     -0.030658
     9   Atom       -0.006409     -0.009364      0.018230
    10   Atom       -0.250941     -0.030913      0.005622
    11   Atom       -0.259846     -0.032136      0.002346
    12   Atom       -0.008518      0.001155     -0.011446
    13   Atom        0.001038      0.043482     -0.005198
    14   Atom       -0.007157     -0.013380     -0.004939
    15   Atom       -0.098130     -0.030136      0.032132
    16   Atom        0.002905      0.011461     -0.039339
    17   Atom       -0.568018      0.541513     -0.363327
    18   Atom        0.356191     -0.232343      0.005935
    19   Atom       -0.030602      0.005787      0.028067
    20   Atom        0.799608      0.226197      0.724909
    21   Atom        0.043444      0.208920     -0.342987
    22   Atom       -0.203460      0.050514     -1.085963
    23   Atom       -0.086128     -0.123595      0.694567
    24   Atom        0.110362     -0.132501      0.165997
    25   Atom        0.271298      0.084500      0.608188
    26   Atom        0.026828     -0.048270     -0.455336
    27   Atom       -0.002059     -0.008709      0.041323
    28   Atom       -0.818951      1.042326     -0.632488
    29   Atom        0.015409      0.206416     -0.034475
    30   Atom       -0.093213     -0.095048     -0.029352
    31   Atom        0.095468     -0.106165      0.189665
    32   Atom        0.017041      0.118842     -0.059246
    33   Atom        0.093527      0.032322     -0.110544
    34   Atom       -0.195556     -0.015814     -0.019845
    35   Atom        0.101133     -0.170679      0.134354
    36   Atom        0.003987      0.184382     -0.017871
    37   Atom        0.112580     -0.099180      0.180962
    38   Atom        0.002863      0.168745     -0.019003
    39   Atom        0.130635     -0.105931      0.171158
    40   Atom       -0.030210     -0.013771     -0.130383
    41   Atom        0.006991      0.170620     -0.008534
    42   Atom        0.028902      0.097080     -0.070391
    43   Atom        0.098464     -0.139008      0.165355
    44   Atom        0.096742     -0.180016      0.123654
    45   Atom       -0.038554      0.001768     -0.025171
    46   Atom        0.108284     -0.165912      0.132585
    47   Atom       -0.029015      0.005574     -0.035009
    48   Atom        0.112814     -0.118952      0.174141
    49   Atom       -0.138964     -0.023521     -0.070850
    50   Atom       -0.155809     -0.001105     -0.014326
    51   Atom        0.116122     -0.140823      0.167075
    52   Atom        0.023023      0.108203     -0.011322
    53   Atom       -0.064888      0.301288      0.005790
    54   Atom        0.052642     -0.122169      0.019079
    55   Atom       -0.003247     -0.008445      0.090986
    56   Atom        0.133503      0.090903     -0.171123
    57   Atom       -0.017862      0.021264      0.039835
    58   Atom       -0.004379     -0.030138     -0.169618
    59   Atom       -0.189372      0.010487      0.040232
    60   Atom        0.082668      0.135767     -0.020214
    61   Atom       -0.005884      0.256699      0.066097
    62   Atom        0.208878      0.058617     -0.039981
    63   Atom       -0.200246      0.075927      0.067271
    64   Atom       -0.050736     -0.067251     -0.207045
 --------------------------------------------------------


 ---------------------------------------------------------------------------------
              Nuclear Quadrupole in Principal Axis System
 ---------------------------------------------------------------------------------

       Atom             a.u.   MegaHertz   Gauss  10(-4) cm-1        Axes

              Baa    -0.2814   -37.755   -13.472   -12.594  0.0361  0.9496  0.3113
     1 C(13)  Bbb     0.1216    16.317     5.822     5.443  0.7113 -0.2433  0.6595
              Bcc     0.1598    21.438     7.650     7.151  0.7020  0.1976 -0.6842
 
              Baa    -0.5262   -20.294    -7.241    -6.769 -0.0530  0.9828 -0.1767
     2 N(14)  Bbb    -0.4848   -18.698    -6.672    -6.237 -0.0926  0.1713  0.9809
              Bcc     1.0110    38.992    13.913    13.006  0.9943  0.0684  0.0819
 
              Baa    -0.5806   -77.908   -27.799   -25.987  0.9984  0.0513 -0.0217
     3 C(13)  Bbb     0.1766    23.705     8.458     7.907 -0.0536  0.7767 -0.6276
              Bcc     0.4039    54.203    19.341    18.080 -0.0153  0.6278  0.7783
 
              Baa    -0.9615    69.571    24.825    23.206  0.0217  0.0873  0.9959
     4 O(17)  Bbb    -0.7068    51.140    18.248    17.059  0.9977  0.0620 -0.0272
              Bcc     1.6682  -120.711   -43.073   -40.265 -0.0641  0.9943 -0.0857
 
              Baa    -0.2394   -32.121   -11.462   -10.715 -0.3562  0.7582 -0.5461
     5 C(13)  Bbb     0.0682     9.148     3.264     3.051  0.2217  0.6363  0.7389
              Bcc     0.1712    22.974     8.198     7.663  0.9077  0.1421 -0.3947
 
              Baa    -0.1018   -13.657    -4.873    -4.556 -0.3098 -0.0549  0.9492
     6 C(13)  Bbb     0.0183     2.457     0.877     0.820 -0.5888  0.7950 -0.1462
              Bcc     0.0835    11.200     3.997     3.736  0.7466  0.6042  0.2786
 
              Baa    -0.0794   -10.648    -3.800    -3.552  0.9692  0.2209  0.1091
     7 C(13)  Bbb     0.0191     2.561     0.914     0.854 -0.2124  0.5247  0.8244
              Bcc     0.0603     8.087     2.886     2.697 -0.1248  0.8221 -0.5554
 
              Baa    -0.0415    -5.564    -1.985    -1.856  0.4551  0.8005  0.3899
     8 C(13)  Bbb     0.0003     0.035     0.013     0.012  0.8688 -0.3034 -0.3912
              Bcc     0.0412     5.528     1.973     1.844  0.1949 -0.5168  0.8336
 
              Baa    -0.0153    -2.048    -0.731    -0.683  0.3476 -0.6093  0.7127
     9 C(13)  Bbb    -0.0105    -1.406    -0.502    -0.469  0.8805  0.4733 -0.0249
              Bcc     0.0257     3.454     1.232     1.152 -0.3222  0.6362  0.7010
 
              Baa    -0.2938   -39.432   -14.070   -13.153  0.7193  0.6930  0.0486
    10 C(13)  Bbb     0.0796    10.686     3.813     3.565  0.0998 -0.1723  0.9800
              Bcc     0.2142    28.746    10.257     9.588 -0.6874  0.7001  0.1931
 
              Baa    -0.3066   -41.149   -14.683   -13.726  0.7232  0.6884  0.0544
    11 C(13)  Bbb     0.0874    11.733     4.187     3.914  0.0884 -0.1705  0.9814
              Bcc     0.2192    29.416    10.496     9.812 -0.6849  0.7050  0.1842
 
              Baa    -0.0251    -3.365    -1.201    -1.123  0.0897  0.6400  0.7631
    12 C(13)  Bbb    -0.0030    -0.404    -0.144    -0.135  0.2409  0.7295 -0.6402
              Bcc     0.0281     3.769     1.345     1.257  0.9664 -0.2413  0.0887
 
              Baa    -0.0753   -10.105    -3.606    -3.371 -0.6988  0.0320  0.7146
    13 C(13)  Bbb     0.0117     1.565     0.558     0.522  0.7151  0.0557  0.6967
              Bcc     0.0636     8.540     3.047     2.849 -0.0175  0.9979 -0.0618
 
              Baa    -0.0866   -11.627    -4.149    -3.878  0.9934  0.0686  0.0921
    14 C(13)  Bbb     0.0236     3.166     1.130     1.056 -0.0780  0.9917  0.1020
              Bcc     0.0631     8.461     3.019     2.822 -0.0843 -0.1085  0.9905
 
              Baa    -0.2323   -31.179   -11.125   -10.400  0.2856  0.9562 -0.0643
    15 C(13)  Bbb     0.0779    10.451     3.729     3.486  0.6614 -0.1481  0.7353
              Bcc     0.1545    20.728     7.396     6.914  0.6935 -0.2525 -0.6747
 
              Baa    -0.0861   -11.555    -4.123    -3.854 -0.0926  0.3191  0.9432
    16 C(13)  Bbb     0.0415     5.562     1.985     1.855  0.9489  0.3153 -0.0135
              Bcc     0.0447     5.992     2.138     1.999 -0.3017  0.8938 -0.3320
 
              Baa    -0.5758   -22.208    -7.924    -7.408  0.5367  0.8431  0.0319
    17 N(14)  Bbb    -0.4626   -17.840    -6.366    -5.951 -0.4388  0.2467  0.8640
              Bcc     1.0384    40.049    14.290    13.359  0.7206 -0.4778  0.5024
 
              Baa    -0.5775   -77.491   -27.651   -25.848  0.8581 -0.4450  0.2563
    18 C(13)  Bbb     0.1811    24.301     8.671     8.106  0.1120  0.6493  0.7522
              Bcc     0.3964    53.190    18.980    17.742  0.5012  0.6167 -0.6070
 
              Baa    -0.0564    -7.563    -2.699    -2.523  0.4017  0.8442 -0.3550
    19 C(13)  Bbb     0.0208     2.796     0.998     0.933  0.7208 -0.0523  0.6912
              Bcc     0.0355     4.767     1.701     1.590 -0.5649  0.5335  0.6295
 
              Baa    -0.9924    71.809    25.623    23.953  0.1438 -0.3657  0.9195
    20 O(17)  Bbb    -0.7236    52.358    18.683    17.465  0.9201 -0.2928 -0.2603
              Bcc     1.7160  -124.168   -44.306   -41.418  0.3644  0.8835  0.2944
 
              Baa    -0.5659   -75.934   -27.095   -25.329 -0.2234  0.5278  0.8195
    21 C(13)  Bbb     0.1805    24.224     8.644     8.080  0.4128  0.8128 -0.4109
              Bcc     0.3853    51.710    18.451    17.249  0.8830 -0.2465  0.3995
 
              Baa    -0.9657    69.879    24.935    23.309  0.9600  0.2083  0.1872
    22 O(17)  Bbb    -0.7032    50.883    18.156    16.973 -0.2696  0.5058  0.8194
              Bcc     1.6689  -120.763   -43.091   -40.282 -0.0760  0.8371 -0.5417
 
              Baa    -0.5259   -20.284    -7.238    -6.766  0.1188  0.8391 -0.5309
    23 N(14)  Bbb    -0.4846   -18.692    -6.670    -6.235  0.9877 -0.0454  0.1493
              Bcc     1.0106    38.976    13.908    13.001 -0.1012  0.5421  0.8342
 
              Baa    -0.2833   -38.016   -13.565   -12.681 -0.4417  0.6350 -0.6338
    24 C(13)  Bbb     0.1221    16.387     5.847     5.466  0.4793  0.7642  0.4317
              Bcc     0.1612    21.629     7.718     7.215  0.7584 -0.1131 -0.6419
 
              Baa    -0.5601   -21.602    -7.708    -7.206  0.5314 -0.4751  0.7014
    25 N(14)  Bbb    -0.4518   -17.423    -6.217    -5.812  0.8254  0.1039 -0.5549
              Bcc     1.0119    39.026    13.925    13.018  0.1907  0.8738  0.4473
 
              Baa    -0.5829   -78.220   -27.911   -26.091  0.0076  0.8166  0.5771
    26 C(13)  Bbb     0.1843    24.725     8.822     8.247  0.9640 -0.1593  0.2127
              Bcc     0.3987    53.495    19.088    17.844 -0.2656 -0.5548  0.7885
 
              Baa    -0.0567    -7.614    -2.717    -2.540  0.0578 -0.6753  0.7353
    27 C(13)  Bbb     0.0207     2.778     0.991     0.927  0.6096  0.6071  0.5097
              Bcc     0.0360     4.837     1.726     1.613  0.7906 -0.4188 -0.4467
 
              Baa    -0.9750    70.548    25.173    23.532  0.6907  0.6761 -0.2565
    28 O(17)  Bbb    -0.7584    54.877    19.581    18.305 -0.3022  0.5921  0.7471
              Bcc     1.7334  -125.425   -44.755   -41.837  0.6570 -0.4385  0.6133
 
              Baa    -0.2904  -154.969   -55.297   -51.692 -0.5663  0.0872  0.8196
    29 H(1)   Bbb     0.1343    71.631    25.560    23.893  0.3232  0.9382  0.1235
              Bcc     0.1562    83.338    29.737    27.799  0.7582 -0.3348  0.5595
 
              Baa    -0.2936  -156.651   -55.897   -52.253  0.9459  0.2315  0.2273
    30 H(1)   Bbb     0.1366    72.863    26.000    24.305 -0.2948  0.9059  0.3041
              Bcc     0.1570    83.788    29.898    27.949 -0.1355 -0.3547  0.9251
 
              Baa    -0.2951  -157.433   -56.176   -52.514  0.3333 -0.6400  0.6923
    31 H(1)   Bbb     0.1356    72.356    25.818    24.135  0.0825  0.7513  0.6548
              Bcc     0.1595    85.077    30.358    28.379  0.9392  0.1611 -0.3032
 
              Baa    -0.3932  -209.783   -74.856   -69.976 -0.1936  0.1128  0.9746
    32 H(1)   Bbb     0.1545    82.407    29.405    27.488 -0.0387  0.9917 -0.1225
              Bcc     0.2387   127.375    45.451    42.488  0.9803  0.0615  0.1877
 
              Baa    -0.2935  -156.622   -55.887   -52.243 -0.2280  0.9342  0.2744
    33 H(1)   Bbb     0.1398    74.615    26.625    24.889 -0.3615 -0.3429  0.8670
              Bcc     0.1537    82.006    29.262    27.354  0.9041  0.0984  0.4159
 
              Baa    -0.2882  -153.791   -54.876   -51.299  0.8451  0.5316  0.0559
    34 H(1)   Bbb     0.1351    72.078    25.719    24.043 -0.3382  0.4508  0.8261
              Bcc     0.1531    81.712    29.157    27.256 -0.4139  0.7170 -0.5608
 
              Baa    -0.2946  -157.195   -56.091   -52.434  0.5290 -0.4153  0.7401
    35 H(1)   Bbb     0.1418    75.652    26.995    25.235 -0.6057  0.4261  0.6720
[...]
 **** Fit      -0.009096
 **** Fit      -0.012034
 **** Fit      -0.015118
 **** Fit      -0.018338
 **** Fit      -0.021689
 **** Fit      -0.025196
 **** Fit      -0.028989
 **** Fit      -0.033419
 **** Fit      -0.004936
 **** Fit      -0.007284
 **** Fit      -0.009760
 **** Fit      -0.012362
 **** Fit      -0.015095
 **** Fit      -0.017981
 **** Fit      -0.021098
 **** Fit      -0.024626
 **** Fit      -0.028884
 **** Fit      -0.003843
 **** Fit      -0.005842
 **** Fit      -0.007955
 **** Fit      -0.010187
 **** Fit      -0.012548
 **** Fit      -0.015076
 **** Fit      -0.017850
 **** Fit      -0.020999
 **** Fit      -0.024644
 **** Fit      -0.028655
 **** Fit      -0.017282
 **** Fit      -0.001036
 **** Fit      -0.002719
 **** Fit      -0.004531
 **** Fit      -0.006467
 **** Fit      -0.008531
 **** Fit      -0.010736
 **** Fit      -0.013116
 **** Fit      -0.015717
 **** Fit      -0.018544
 **** Fit      -0.021382
 **** Fit      -0.023542
 **** Fit      -0.023878
 **** Fit      -0.021490
 **** Fit      -0.016594
 **** Fit      -0.010451
 **** Fit      -0.000390
 **** Fit      -0.001877
 **** Fit      -0.003518
 **** Fit      -0.005301
 **** Fit      -0.007219
 **** Fit      -0.009267
 **** Fit      -0.011437
 **** Fit      -0.013663
 **** Fit      -0.015702
 **** Fit      -0.016987
 **** Fit      -0.016718
 **** Fit      -0.014423
 **** Fit      -0.010491
 **** Fit      -0.005995
 **** Fit      -0.002002
 **** Fit      -0.000714
 **** Fit       0.001505
 **** Fit       0.000676
 **** Fit      -0.000469
 **** Fit      -0.001871
 **** Fit      -0.003484
 **** Fit      -0.005267
 **** Fit      -0.007169
 **** Fit      -0.009101
 **** Fit      -0.010851
 **** Fit      -0.011958
 **** Fit      -0.011766
 **** Fit      -0.009892
 **** Fit      -0.006764
 **** Fit      -0.003409
 **** Fit      -0.001815
 **** Fit      -0.000215
 **** Fit       0.000287
 **** Fit      -0.000102
 **** Fit      -0.001153
 **** Fit      -0.002673
 **** Fit      -0.004487
 **** Fit      -0.006362
 **** Fit      -0.007874
 **** Fit      -0.008290
 **** Fit      -0.006983
 **** Fit      -0.004382
 **** Fit      -0.002605
 **** Fit      -0.001391
 **** Fit      -0.002049
 **** Fit      -0.003837
 **** Fit      -0.005368
 **** Fit      -0.004836
 **** Fit      -0.003240
 **** Fit       0.006757
 **** Fit       0.005630
 **** Fit       0.004642
 **** Fit       0.003725
 **** Fit       0.010976
 **** Fit       0.009082
 **** Fit       0.007688
 **** Fit       0.006568
 **** Fit       0.005590
 **** Fit       0.004689
 **** Fit       0.003848
 **** Fit       0.012755
 **** Fit       0.010625
 **** Fit       0.009088
 **** Fit       0.007883
 **** Fit       0.006860
 **** Fit       0.005934
 **** Fit       0.005065
 **** Fit       0.004252
 **** Fit       0.016843
 **** Fit       0.013774
 **** Fit       0.011665
 **** Fit       0.010124
 **** Fit       0.008916
 **** Fit       0.007898
 **** Fit       0.006983
 **** Fit       0.006126
 **** Fit       0.005311
 **** Fit       0.004545
 **** Fit       0.016671
 **** Fit       0.014005
 **** Fit       0.012096
 **** Fit       0.010660
 **** Fit       0.009514
 **** Fit       0.008536
 **** Fit       0.007653
 **** Fit       0.006822
 **** Fit       0.006024
 **** Fit       0.005259
 **** Fit       0.004545
 **** Fit       0.018684
 **** Fit       0.015707
 **** Fit       0.013529
 **** Fit       0.011899
 **** Fit       0.010628
 **** Fit       0.009577
 **** Fit       0.008656
 **** Fit       0.007804
 **** Fit       0.006989
 **** Fit       0.006198
 **** Fit       0.005436
 **** Fit       0.004720
 **** Fit       0.016492
 **** Fit       0.014352
 **** Fit       0.012671
 **** Fit       0.011341
 **** Fit       0.010250
 **** Fit       0.009305
 **** Fit       0.008442
 **** Fit       0.007619
 **** Fit       0.006816
 **** Fit       0.006030
 **** Fit       0.005273
 **** Fit       0.004565
 **** Fit       0.019120
 **** Fit       0.014231
 **** Fit       0.012851
 **** Fit       0.011646
 **** Fit       0.010611
 **** Fit       0.009700
 **** Fit       0.008865
 **** Fit       0.008065
 **** Fit       0.007279
 **** Fit       0.006498
 **** Fit       0.005729
 **** Fit       0.004990
 **** Fit       0.015671
 **** Fit       0.012039
 **** Fit       0.011231
 **** Fit       0.010389
 **** Fit       0.009575
 **** Fit       0.008786
 **** Fit       0.008004
 **** Fit       0.007214
 **** Fit       0.006414
 **** Fit       0.005616
 **** Fit       0.004840
 **** Fit       0.012611
 **** Fit       0.009992
 **** Fit       0.009651
 **** Fit       0.009103
 **** Fit       0.008455
 **** Fit       0.007744
 **** Fit       0.006983
 **** Fit       0.006183
 **** Fit       0.005366
 **** Fit       0.004562
 **** Fit       0.009885
 **** Fit       0.008134
 **** Fit       0.008124
 **** Fit       0.007746
 **** Fit       0.007149
 **** Fit       0.006412
 **** Fit       0.005584
 **** Fit       0.004720
 **** Fit       0.007513
 **** Fit       0.006499
 **** Fit       0.006674
 **** Fit       0.006254
 **** Fit       0.005481
 **** Fit       0.004534
 **** Fit       0.005118
 **** Fit       0.005198
 **** Fit      -0.008182
 **** Fit      -0.009867
 **** Fit      -0.014744
 **** Fit      -0.005714
 **** Fit      -0.006043
 **** Fit      -0.007828
 **** Fit      -0.011370
 **** Fit      -0.016989
 **** Fit      -0.003956
 **** Fit      -0.003841
 **** Fit      -0.004516
 **** Fit      -0.006043
 **** Fit      -0.008632
 **** Fit      -0.012621
 **** Fit      -0.018481
 **** Fit      -0.002433
 **** Fit      -0.002289
 **** Fit      -0.002669
 **** Fit      -0.003581
 **** Fit      -0.005128
 **** Fit      -0.007492
 **** Fit      -0.010950
 **** Fit      -0.015920
 **** Fit      -0.001040
 **** Fit      -0.001044
 **** Fit      -0.001395
 **** Fit      -0.002114
 **** Fit      -0.003280
 **** Fit      -0.005021
 **** Fit      -0.007513
 **** Fit      -0.011020
 **** Fit      -0.015943
 **** Fit      -0.022941
 **** Fit       0.000007
 **** Fit      -0.000357
 **** Fit      -0.000961
 **** Fit      -0.001874
 **** Fit      -0.003188
 **** Fit      -0.005018
 **** Fit      -0.007523
 **** Fit      -0.010928
 **** Fit      -0.015576
 **** Fit      -0.022022
 **** Fit       0.000739
 **** Fit       0.000235
 **** Fit      -0.000467
 **** Fit      -0.001446
 **** Fit      -0.002795
 **** Fit      -0.004623
 **** Fit      -0.007076
 **** Fit      -0.010355
 **** Fit      -0.014765
 **** Fit      -0.020786
 **** Fit       0.001264
 **** Fit       0.000643
 **** Fit      -0.000142
 **** Fit      -0.001172
 **** Fit      -0.002535
 **** Fit      -0.004329
 **** Fit      -0.006679
 **** Fit      -0.009752
 **** Fit      -0.013793
 **** Fit      -0.019174
 **** Fit      -0.026493
 **** Fit       0.001440
 **** Fit       0.000668
 **** Fit      -0.000273
 **** Fit      -0.001464
 **** Fit      -0.002992
 **** Fit      -0.004955
 **** Fit      -0.007472
 **** Fit      -0.010705
 **** Fit      -0.014883
 **** Fit      -0.020345
 **** Fit      -0.027612
 **** Fit       0.001772
 **** Fit       0.000859
 **** Fit      -0.000211
 **** Fit      -0.001531
 **** Fit      -0.003192
 **** Fit      -0.005296
 **** Fit      -0.007963
 **** Fit      -0.011350
 **** Fit      -0.015669
 **** Fit      -0.021218
 **** Fit       0.000577
 **** Fit      -0.000734
 **** Fit      -0.002335
 **** Fit      -0.004327
 **** Fit      -0.006817
 **** Fit      -0.009931
 **** Fit      -0.013823
 **** Fit      -0.001470
 **** Fit      -0.003345
 **** Fit      -0.005630
 **** Fit       0.009658
 **** Fit       0.014230
 **** Fit       0.017537
 **** Fit      -0.002361
 **** Fit       0.003370
 **** Fit       0.009403
 **** Fit       0.014247
 **** Fit       0.017590
 **** Fit       0.019667
 **** Fit       0.020866
 **** Fit      -0.001152
 **** Fit       0.006588
 **** Fit       0.012456
 **** Fit       0.016515
 **** Fit       0.019137
 **** Fit       0.020733
 **** Fit       0.021680
 **** Fit      -0.001106
 **** Fit       0.007452
 **** Fit       0.013378
 **** Fit       0.017275
 **** Fit       0.019715
 **** Fit       0.021160
 **** Fit       0.021966
 **** Fit       0.022424
 **** Fit       0.018303
 **** Fit       0.020368
 **** Fit       0.021541
 **** Fit       0.022142
 **** Fit       0.022387
 **** Fit       0.022453
 **** Fit       0.022593
 **** Fit       0.021192
 **** Fit       0.021953
 **** Fit       0.022259
 **** Fit       0.022271
 **** Fit       0.022053
 **** Fit       0.021723
 **** Fit       0.020082
 **** Fit       0.002456
 **** Fit       0.003431
 **** Fit       0.001916
 **** Fit       0.000880
 **** Fit      -0.000016
 **** Fit       0.003757
 **** Fit       0.002898
 **** Fit       0.001374
 **** Fit       0.000202
 **** Fit      -0.000989
 **** Fit      -0.002011
 **** Fit       0.004759
 **** Fit       0.004071
 **** Fit       0.003315
 **** Fit       0.002423
 **** Fit       0.000734
 **** Fit      -0.000588
 **** Fit      -0.002015
 **** Fit      -0.003424
 **** Fit      -0.004616
 **** Fit       0.005008
 **** Fit       0.004343
 **** Fit       0.003653
 **** Fit       0.002853
 **** Fit       0.001887
 **** Fit      -0.000086
 **** Fit      -0.001545
 **** Fit      -0.003168
 **** Fit      -0.004878
 **** Fit      -0.006539
 **** Fit      -0.007949
 **** Fit       0.005136
 **** Fit       0.004467
 **** Fit       0.003816
 **** Fit       0.003091
 **** Fit       0.002224
 **** Fit       0.001171
 **** Fit      -0.001160
 **** Fit      -0.002863
 **** Fit      -0.004801
 **** Fit      -0.006918
 **** Fit      -0.009102
 **** Fit      -0.011167
 **** Fit       0.004678
 **** Fit       0.003991
 **** Fit       0.003287
 **** Fit       0.002476
 **** Fit       0.001491
 **** Fit       0.000289
 **** Fit      -0.002557
 **** Fit      -0.004528
 **** Fit      -0.006813
 **** Fit      -0.009385
 **** Fit      -0.012170
 **** Fit      -0.015013
 **** Fit       0.004825
 **** Fit       0.004040
 **** Fit       0.003312
 **** Fit       0.002528
 **** Fit       0.001605
 **** Fit       0.000480
 **** Fit      -0.000895
 **** Fit      -0.004348
 **** Fit      -0.006694
 **** Fit      -0.009467
 **** Fit      -0.012683
 **** Fit      -0.016316
 **** Fit      -0.020260
 **** Fit       0.004159
 **** Fit       0.003320
 **** Fit       0.002503
 **** Fit       0.001598
 **** Fit       0.000524
 **** Fit      -0.000788
 **** Fit      -0.002395
 **** Fit      -0.006611
 **** Fit      -0.009575
 **** Fit      -0.013183
 **** Fit      -0.017530
 **** Fit       0.002670
 **** Fit       0.001697
 **** Fit       0.000619
 **** Fit      -0.000665
 **** Fit      -0.002242
 **** Fit      -0.004196
 **** Fit      -0.009429
 **** Fit      -0.013304
 **** Fit      -0.018208
 **** Fit       0.002047
 **** Fit       0.000854
 **** Fit      -0.000455
 **** Fit      -0.002013
 **** Fit      -0.003941
 **** Fit      -0.006366
 **** Fit      -0.012894
 **** Fit      -0.017968
 **** Fit      -0.000142
 **** Fit      -0.001744
 **** Fit      -0.003642
 **** Fit      -0.006002
 **** Fit      -0.009009
 **** Fit      -0.017082
 **** Fit      -0.002665
 **** Fit      -0.005035
 **** Fit      -0.008000
 **** Fit      -0.011874
 **** Fit      -0.010110
 **** Fit       0.010891
 **** Fit       0.010295
 **** Fit       0.009538
 **** Fit       0.008699
 **** Fit       0.012551
 **** Fit       0.012035
 **** Fit       0.011360
 **** Fit       0.010577
 **** Fit       0.009723
 **** Fit       0.008837
 **** Fit       0.007980
 **** Fit       0.014789
 **** Fit       0.014284
 **** Fit       0.013570
 **** Fit       0.012757
 **** Fit       0.011897
 **** Fit       0.011003
 **** Fit       0.010081
 **** Fit       0.009145
 **** Fit       0.008232
 **** Fit       0.017413
 **** Fit       0.016437
 **** Fit       0.015351
 **** Fit       0.014280
 **** Fit       0.013259
 **** Fit       0.012277
 **** Fit       0.011316
 **** Fit       0.010357
 **** Fit       0.009400
 **** Fit       0.008460
 **** Fit       0.007584
 **** Fit       0.020863
 **** Fit       0.018955
 **** Fit       0.017193
 **** Fit       0.015665
 **** Fit       0.014344
 **** Fit       0.013171
 **** Fit       0.012088
 **** Fit       0.011050
 **** Fit       0.010031
 **** Fit       0.009023
 **** Fit       0.008045
 **** Fit       0.007150
 **** Fit       0.021912
 **** Fit       0.019191
 **** Fit       0.017065
 **** Fit       0.015374
 **** Fit       0.013977
 **** Fit       0.012761
 **** Fit       0.011648
 **** Fit       0.010585
 **** Fit       0.009543
 **** Fit       0.008518
 **** Fit       0.007530
 **** Fit       0.006635
 **** Fit       0.019442
 **** Fit       0.017015
 **** Fit       0.015175
 **** Fit       0.013698
 **** Fit       0.012437
 **** Fit       0.011295
 **** Fit       0.010209
 **** Fit       0.009147
 **** Fit       0.008100
 **** Fit       0.007085
 **** Fit       0.006153
 **** Fit       0.018236
 **** Fit       0.015825
 **** Fit       0.014032
 **** Fit       0.012593
 **** Fit       0.011348
 **** Fit       0.010198
 **** Fit       0.009085
 **** Fit       0.007984
 **** Fit       0.006897
 **** Fit       0.005857
 **** Fit       0.017117
 **** Fit       0.014681
 **** Fit       0.012917
 **** Fit       0.011511
 **** Fit       0.010284
 **** Fit       0.009129
 **** Fit       0.007990
 **** Fit       0.006846
 **** Fit       0.005707
 **** Fit       0.012745
 **** Fit       0.011259
 **** Fit       0.010037
 **** Fit       0.008920
 **** Fit       0.007824
 **** Fit       0.006705
 **** Fit       0.005553
 **** Fit       0.009675
 **** Fit       0.008718
 **** Fit       0.007773
 **** Fit       0.006773
 **** Fit       0.005691
 **** Fit       0.006463
 **** Fit       0.006069
 **** Fit       0.005389
 **** Fit       0.004501
 **** Fit       0.003988
 **** Fit       0.003342
 **** Fit       0.003730
 **** Fit       0.004914
 **** Fit       0.005539
 **** Fit       0.005016
 **** Fit       0.003384
 **** Fit       0.002529
 **** Fit       0.002013
 **** Fit       0.001984
 **** Fit       0.002592
 **** Fit       0.003817
 **** Fit       0.005234
 **** Fit       0.006236
 **** Fit       0.006515
 **** Fit       0.006150
 **** Fit       0.005374
 **** Fit       0.004395
 **** Fit       0.002712
 **** Fit       0.001764
 **** Fit       0.000996
 **** Fit       0.000464
 **** Fit       0.000206
 **** Fit       0.000318
 **** Fit       0.000955
 **** Fit       0.002186
 **** Fit       0.003831
 **** Fit       0.005486
 **** Fit       0.006748
 **** Fit       0.007414
 **** Fit       0.007502
 **** Fit       0.007146
 **** Fit       0.000900
 **** Fit      -0.000073
 **** Fit      -0.000847
 **** Fit      -0.001440
 **** Fit      -0.001863
 **** Fit      -0.002053
 **** Fit      -0.001835
 **** Fit      -0.001003
 **** Fit       0.000521
 **** Fit       0.002561
 **** Fit       0.004726
 **** Fit       0.006594
 **** Fit       0.007889
 **** Fit       0.008547
 **** Fit       0.008656
 **** Fit      -0.001300
 **** Fit      -0.002322
 **** Fit      -0.003137
 **** Fit      -0.003830
 **** Fit      -0.004452
 **** Fit      -0.004945
 **** Fit      -0.005096
 **** Fit      -0.004594
 **** Fit      -0.003198
 **** Fit      -0.000929
 **** Fit       0.001885
 **** Fit       0.004737
 **** Fit       0.007151
 **** Fit       0.008848
 **** Fit       0.009783
 **** Fit      -0.003986
 **** Fit      -0.005030
 **** Fit      -0.005896
 **** Fit      -0.006733
 **** Fit      -0.007633
 **** Fit      -0.008555
 **** Fit      -0.009255
 **** Fit      -0.009315
 **** Fit      -0.008307
 **** Fit      -0.006038
 **** Fit      -0.002710
 **** Fit       0.001148
 **** Fit       0.004895
 **** Fit       0.008004
 **** Fit       0.010189
 **** Fit       0.011432
 **** Fit      -0.008597
 **** Fit      -0.009581
 **** Fit      -0.010749
 **** Fit      -0.012220
 **** Fit      -0.013860
 **** Fit      -0.015189
 **** Fit      -0.015459
 **** Fit      -0.013979
 **** Fit      -0.010533
 **** Fit      -0.005566
 **** Fit       0.000033
 **** Fit       0.005318
 **** Fit       0.009576
 **** Fit       0.012458
 **** Fit      -0.012973
 **** Fit      -0.014201
 **** Fit      -0.015999
 **** Fit      -0.018498
 **** Fit      -0.021385
 **** Fit      -0.009043
 **** Fit      -0.000891
 **** Fit       0.006566
 **** Fit       0.012398
 **** Fit      -0.018581
 **** Fit      -0.020530
 -----------------------------------------------------------------
 Leave Link  602 at Fri Dec  6 21:33:59 2019, MaxMem=   33554432 cpu:       5.4

 Test job not archived.
 1\1\GINC-MOSURA\FOpt\RHF\6-31G(d)\C20H36N4O4\MARIE\06-Dec-2019\0\\#HF/
 6-31G* SCF=tight Test Pop=MK iop(6/33=2) iop(6/42=6) opt\\remark line 
 goes here\\0,1\C,-5.5660366709,-2.9292362756,-0.9057690962\N,-5.306310
 4979,-1.5060641002,-0.8254834079\C,-4.7880693135,-0.9744609585,0.30028
 93692\O,-4.3920320981,-1.6543794963,1.2101309845\C,-4.5977766132,0.560
 48072,0.3597807958\C,-5.4100100254,1.3448813037,-0.6791337365\C,-3.080
 5004051,0.7840356528,0.1586737464\C,-2.6024592107,2.2390606681,0.20125
 29424\C,-1.0702448036,2.3569316641,0.1332493168\C,-0.5015424412,1.9331
 339697,-1.1969825313\C,0.3573836775,0.9622525821,-1.4610532777\C,1.015
 4606302,0.0016662507,-0.5051720818\C,2.5472053938,0.1160181753,-0.5355
 775428\C,3.1920549423,-0.8770540578,0.4379587197\C,4.7326368715,-0.963
 5081274,0.5292191206\C,5.0732227793,-1.8634032423,1.732202293\N,5.3326
 21386,0.3410083786,0.7977412907\C,5.6918707738,1.2066969109,-0.1900610
 901\C,6.622985025,2.3183655164,0.2389605321\O,5.304448921,1.0985950774
 ,-1.3200011624\C,5.4753134028,-1.6108096222,-0.666493469\O,6.676268244
 6,-1.6207816096,-0.6734700382\N,4.7438413187,-2.2599345926,-1.59596939
 95\C,5.3957696405,-2.8261291367,-2.7601764177\N,-4.9480198506,0.998412
 4674,1.7080706095\C,-6.163589839,0.7068120177,2.253467128\C,-6.2543348
 304,0.8917212703,3.7513177698\O,-7.0955995517,0.3281860829,1.598737865
 7\H,-4.6705083164,-3.4770462543,-0.6527393646\H,-6.3574860809,-3.23340
 00381,-0.2296880575\H,-5.8522755796,-3.1714558507,-1.9209232537\H,-5.8
 363582629,-0.9152851133,-1.4207988954\H,-5.3147894366,2.4047795969,-0.
 4853368193\H,-6.4604890637,1.0980579847,-0.6285996015\H,-5.0395628974,
 1.155672859,-1.6821965671\H,-2.5608924127,0.2089625079,0.919571541\H,-
 2.8035154826,0.3433069207,-0.7933455704\H,-3.0337187797,2.801606101,-0
 .621155593\H,-2.9469121657,2.7188678732,1.112702124\H,-0.8047036597,3.
 3991837372,0.2997549047\H,-0.6273153542,1.7950342201,0.9476823401\H,-0
 .8550048436,2.5177564376,-2.0336696624\H,0.6468266086,0.8303816659,-2.
 4928091377\H,0.6585676918,0.151951569,0.5073876914\H,0.7271466434,-1.0
 125333625,-0.7811244051\H,2.9037748401,-0.0282015305,-1.5488844149\H,2
 .8327251261,1.1255608916,-0.2689858198\H,2.8485013903,-0.623059762,1.4
 367046344\H,2.8107583139,-1.8780383393,0.2475076682\H,4.6436208228,-2.
 8499366059,1.602272978\H,4.6680726546,-1.4381365949,2.6451477054\H,6.1
 455199378,-1.9700350144,1.8315080661\H,5.871195764,0.3959382369,1.6326
 119086\H,7.6429893222,1.9476252084,0.2077447851\H,6.4139766429,2.66433
 76895,1.2450430154\H,6.5333804757,3.1402693732,-0.4563277656\H,3.78574
 90934,-2.021793076,-1.688066715\H,5.8181475438,-2.0574359697,-3.397535
 8145\H,4.6659951897,-3.3952478394,-3.3212408337\H,6.1905745644,-3.4863
 144815,-2.4465492145\H,-4.1910687746,0.9969207449,2.3551681033\H,-7.29
 14060044,1.0090849433,4.0301341227\H,-5.6824105024,1.7476296883,4.0911
 175571\H,-5.8626618639,0.002494094,4.2362091268\\Version=EM64L-G09RevA
 .02\State=1-A\HF=-1295.6246297\RMSD=8.909e-09\RMSF=1.321e-06\Dipole=-0
 .1001697,0.589523,0.4862015\Quadrupole=-25.3864102,9.3791331,16.007277
 1,-0.0825473,19.9049075,10.5276481\PG=C01 [X(C20H36N4O4)]\\@


 THE MOST BEAUTIFUL EXPERIENCE WE CAN HAVE IS THE MYSTERIOUS.
 IT IS THE FUNDAMENTAL EMOTION WHICH STANDS AT AT THE CRADLE 
 OF TRUE ART AND TRUE SCIENCE.

                                    -- ALBERT EINSTEIN
 Job cpu time:  0 days  2 hours 26 minutes 33.0 seconds.
 File lengths (MBytes):  RWF=    156 Int=      0 D2E=      0 Chk=     18 Scr=      1
 Normal termination of Gaussian 09 at Fri Dec  6 21:33:59 2019.
