 Entering Gaussian System, Link 0=g09
 Input=3.gau
 Output=3.log
 Initial command:
 /home/marie/Utilities//g09/l1.exe /tmp/g09/Gau-1967.inp -scrdir=/tmp/g09/
 Entering Link 1 = /home/marie/Utilities//g09/l1.exe PID=      1993.
  
 Copyright (c) 1988,1990,1992,1993,1995,1998,2003,2009, Gaussian, Inc.
                  All Rights Reserved.
  
 This is part of the Gaussian(R) 09 program.  It is based on
 the Gaussian(R) 03 system (copyright 2003, Gaussian, Inc.),
 the Gaussian(R) 98 system (copyright 1998, Gaussian, Inc.),
 the Gaussian(R) 94 system (copyright 1995, Gaussian, Inc.),
 the Gaussian 92(TM) system (copyright 1992, Gaussian, Inc.),
 the Gaussian 90(TM) system (copyright 1990, Gaussian, Inc.),
 the Gaussian 88(TM) system (copyright 1988, Gaussian, Inc.),
 the Gaussian 86(TM) system (copyright 1986, Carnegie Mellon
 University), and the Gaussian 82(TM) system (copyright 1983,
 Carnegie Mellon University). Gaussian is a federally registered
 trademark of Gaussian, Inc.
  
 This software contains proprietary and confidential information,
 including trade secrets, belonging to Gaussian, Inc.
  
 This software is provided under written license and may be
 used, copied, transmitted, or stored only in accord with that
 written license.
  
 The following legend is applicable only to US Government
 contracts under FAR:
  
                    RESTRICTED RIGHTS LEGEND
  
 Use, reproduction and disclosure by the US Government is
 subject to restrictions as set forth in subparagraphs (a)
 and (c) of the Commercial Computer Software - Restricted
 Rights clause in FAR 52.227-19.
  
 Gaussian, Inc.
 340 Quinnipiac St., Bldg. 40, Wallingford CT 06492
  
  
 ---------------------------------------------------------------
 Warning -- This program may not be used in any manner that
 competes with the business of Gaussian, Inc. or will provide
 assistance to any competitor of Gaussian, Inc.  The licensee
 of this program is prohibited from giving any competitor of
 Gaussian, Inc. access to this program.  By using this program,
 the user acknowledges that Gaussian, Inc. is engaged in the
 business of creating and licensing software in the field of
 computational chemistry and represents and warrants to the
 licensee that it is not a competitor of Gaussian, Inc. and that
 it will not use this program in any manner prohibited above.
 ---------------------------------------------------------------
  

 Cite this work as:
 Gaussian 09, Revision A.02,
 M. J. Frisch, G. W. Trucks, H. B. Schlegel, G. E. Scuseria, 
 M. A. Robb, J. R. Cheeseman, G. Scalmani, V. Barone, B. Mennucci, 
 G. A. Petersson, H. Nakatsuji, M. Caricato, X. Li, H. P. Hratchian, 
 A. F. Izmaylov, J. Bloino, G. Zheng, J. L. Sonnenberg, M. Hada, 
 M. Ehara, K. Toyota, R. Fukuda, J. Hasegawa, M. Ishida, T. Nakajima, 
 Y. Honda, O. Kitao, H. Nakai, T. Vreven, J. A. Montgomery, Jr., 
 J. E. Peralta, F. Ogliaro, M. Bearpark, J. J. Heyd, E. Brothers, 
 K. N. Kudin, V. N. Staroverov, R. Kobayashi, J. Normand, 
 K. Raghavachari, A. Rendell, J. C. Burant, S. S. Iyengar, J. Tomasi, 
 M. Cossi, N. Rega, J. M. Millam, M. Klene, J. E. Knox, J. B. Cross, 
 V. Bakken, C. Adamo, J. Jaramillo, R. Gomperts, R. E. Stratmann, 
 O. Yazyev, A. J. Austin, R. Cammi, C. Pomelli, J. W. Ochterski, 
 R. L. Martin, K. Morokuma, V. G. Zakrzewski, G. A. Voth, 
 P. Salvador, J. J. Dannenberg, S. Dapprich, A. D. Daniels, 
 O. Farkas, J. B. Foresman, J. V. Ortiz, J. Cioslowski, 
 and D. J. Fox, Gaussian, Inc., Wallingford CT, 2009.
 
 ******************************************
 Gaussian 09:  EM64L-G09RevA.02 11-Jun-2009
                 6-Dec-2019 
 ******************************************
 %chk=conf3
 ------------------------------------------------------------
 #HF/6-31G* SCF=tight Test Pop=MK iop(6/33=2) iop(6/42=6) opt
 ------------------------------------------------------------
 1/18=20,19=15,38=1/1,3;
 2/9=110,12=2,17=6,18=5,40=1/2;
 3/5=1,6=6,7=1,11=9,16=1,25=1,30=1,71=1/1,2,3;
 4//1;
 5/5=2,32=2,38=5/2;
 6/7=2,8=2,9=2,10=2,15=8,20=1,28=1,33=2,42=6/1,2;
 7//1,2,3,16;
 1/18=20,19=15/3(2);
 2/9=110/2;
 99//99;
 2/9=110/2;
 3/5=1,6=6,7=1,11=9,16=1,25=1,30=1,71=1/1,2,3;
 4/5=5,16=3/1;
 5/5=2,32=2,38=5/2;
 7//1,2,3,16;
 1/18=20,19=15/3(-5);
 2/9=110/2;
 6/7=2,8=2,9=2,10=2,15=8,19=2,20=1,28=1,33=2,42=6/1,2;
 99/9=1/99;
 ---------------------
 remark line goes here
 ---------------------
 Symbolic Z-matrix:
 Charge =  0 Multiplicity = 1
 C                    -7.157    -1.354     1.888 
 N                    -6.043    -1.036     1.03 
 C                    -5.984     0.189     0.392 
 O                    -6.776     1.098     0.656 
 C                    -4.764     0.414    -0.563 
 C                    -4.472    -0.815    -1.433 
 C                    -3.551     0.747     0.353 
 C                    -2.252     1.159    -0.36 
 C                    -1.302    -0.011    -0.63 
 C                    -0.025     0.466    -1.262 
 C                     1.191     0.52     -0.695 
 C                     1.544     0.17      0.723 
 C                     2.13     -1.236     0.872 
 C                     3.446    -1.524     0.126 
 C                     4.709    -0.738     0.582 
 C                     4.884    -0.841     2.106 
 N                     4.615     0.656     0.098 
 C                     5.428     1.674     0.551 
 C                     5.332     2.929    -0.278 
 O                     6.169     1.601     1.524 
 C                     5.918    -1.357    -0.199 
 O                     6.318    -0.869    -1.26 
 N                     6.419    -2.548     0.289 
 C                     7.564    -3.165    -0.335 
 N                    -5.096     1.618    -1.36 
 C                    -5.965     1.597    -2.431 
 C                    -6.359     2.97     -2.91 
 O                    -6.399     0.581    -2.961 
 H                    -6.913    -2.256     2.454 
 H                    -7.354    -0.526     2.574 
 H                    -8.04     -1.532     1.268 
 H                    -5.542    -1.814     0.623 
 H                    -3.944    -1.591    -0.867 
 H                    -5.391    -1.283    -1.802 
 H                    -3.858    -0.556    -2.302 
 H                    -3.351    -0.088     1.038 
 H                    -3.841     1.588     1.001 
 H                    -1.73      1.873     0.292 
 H                    -2.468     1.698    -1.289 
 H                    -1.107    -0.556     0.3 
 H                    -1.758    -0.733    -1.314 
 H                    -0.114     0.781    -2.303 
 H                     2.014     0.882    -1.309 
 H                     0.657     0.245     1.364 
 H                     2.234     0.923     1.116 
 H                     1.384    -1.961     0.517 
 H                     2.259    -1.45      1.939 
 H                     3.291    -1.382    -0.952 
 H                     3.642    -2.598     0.246 
 H                     5.913    -0.627     2.416 
 H                     4.661    -1.851     2.466 
 H                     4.222    -0.147     2.634 
 H                     4.446     0.709    -0.901 
 H                     6.184     2.973    -0.961 
 H                     4.404     2.955    -0.856 
 H                     5.344     3.799     0.385 
 H                     6.238    -2.789     1.253 
 H                     7.661    -4.184     0.048 
 H                     7.438    -3.185    -1.42 
 H                     8.457    -2.586    -0.082 
 H                    -5.184     2.456    -0.795 
 H                    -5.642     3.728    -2.583 
 H                    -6.383     2.975    -4.004 
 H                    -7.349     3.216    -2.518 
 

 GradGradGradGradGradGradGradGradGradGradGradGradGradGradGradGradGradGrad
 Berny optimization.
 Initialization pass.
                           ----------------------------
                           !    Initial Parameters    !
                           ! (Angstroms and Degrees)  !
 --------------------------                            --------------------------
 ! Name  Definition              Value          Derivative Info.                !
 --------------------------------------------------------------------------------
 ! R1    R(1,2)                  1.4416         estimate D2E/DX2                !
 ! R2    R(1,29)                 1.0925         estimate D2E/DX2                !
 ! R3    R(1,30)                 1.0932         estimate D2E/DX2                !
 ! R4    R(1,31)                 1.0935         estimate D2E/DX2                !
 ! R5    R(2,3)                  1.3824         estimate D2E/DX2                !
 ! R6    R(2,32)                 1.0109         estimate D2E/DX2                !
 ! R7    R(3,4)                  1.2342         estimate D2E/DX2                !
 ! R8    R(3,5)                  1.5656         estimate D2E/DX2                !
 ! R9    R(5,6)                  1.5338         estimate D2E/DX2                !
 ! R10   R(5,7)                  1.5561         estimate D2E/DX2                !
 ! R11   R(5,25)                 1.4816         estimate D2E/DX2                !
 ! R12   R(6,33)                 1.096          estimate D2E/DX2                !
 ! R13   R(6,34)                 1.0953         estimate D2E/DX2                !
 ! R14   R(6,35)                 1.0951         estimate D2E/DX2                !
 ! R15   R(7,8)                  1.538          estimate D2E/DX2                !
 ! R16   R(7,36)                 1.0984         estimate D2E/DX2                !
 ! R17   R(7,37)                 1.1006         estimate D2E/DX2                !
 ! R18   R(8,9)                  1.5311         estimate D2E/DX2                !
 ! R19   R(8,38)                 1.0988         estimate D2E/DX2                !
 ! R20   R(8,39)                 1.0955         estimate D2E/DX2                !
 ! R21   R(9,10)                 1.5026         estimate D2E/DX2                !
 ! R22   R(9,40)                 1.0954         estimate D2E/DX2                !
 ! R23   R(9,41)                 1.0941         estimate D2E/DX2                !
 ! R24   R(10,11)                1.3428         estimate D2E/DX2                !
 ! R25   R(10,42)                1.0913         estimate D2E/DX2                !
 ! R26   R(11,12)                1.5026         estimate D2E/DX2                !
 ! R27   R(11,43)                1.0887         estimate D2E/DX2                !
 ! R28   R(12,13)                1.5305         estimate D2E/DX2                !
 ! R29   R(12,44)                1.0969         estimate D2E/DX2                !
 ! R30   R(12,45)                1.0943         estimate D2E/DX2                !
 ! R31   R(13,14)                1.5399         estimate D2E/DX2                !
 ! R32   R(13,46)                1.0992         estimate D2E/DX2                !
 ! R33   R(13,47)                1.0959         estimate D2E/DX2                !
 ! R34   R(14,15)                1.5559         estimate D2E/DX2                !
 ! R35   R(14,48)                1.0983         estimate D2E/DX2                !
 ! R36   R(14,49)                1.0983         estimate D2E/DX2                !
 ! R37   R(15,16)                1.5375         estimate D2E/DX2                !
 ! R38   R(15,17)                1.4786         estimate D2E/DX2                !
 ! R39   R(15,21)                1.5668         estimate D2E/DX2                !
 ! R40   R(16,50)                1.0958         estimate D2E/DX2                !
 ! R41   R(16,51)                1.0952         estimate D2E/DX2                !
 ! R42   R(16,52)                1.0948         estimate D2E/DX2                !
 ! R43   R(17,18)                1.3793         estimate D2E/DX2                !
 ! R44   R(17,53)                1.0146         estimate D2E/DX2                !
 ! R45   R(18,19)                1.5071         estimate D2E/DX2                !
 ! R46   R(18,20)                1.2252         estimate D2E/DX2                !
 ! R47   R(19,54)                1.0929         estimate D2E/DX2                !
 ! R48   R(19,55)                1.0936         estimate D2E/DX2                !
 ! R49   R(19,56)                1.0939         estimate D2E/DX2                !
 ! R50   R(21,22)                1.2344         estimate D2E/DX2                !
 ! R51   R(21,23)                1.3812         estimate D2E/DX2                !
 ! R52   R(23,24)                1.4426         estimate D2E/DX2                !
 ! R53   R(23,57)                1.01           estimate D2E/DX2                !
 ! R54   R(24,58)                1.0929         estimate D2E/DX2                !
 ! R55   R(24,59)                1.0925         estimate D2E/DX2                !
 ! R56   R(24,60)                1.0939         estimate D2E/DX2                !
 ! R57   R(25,26)                1.3794         estimate D2E/DX2                !
 ! R58   R(25,61)                1.0145         estimate D2E/DX2                !
 ! R59   R(26,27)                1.5066         estimate D2E/DX2                !
 ! R60   R(26,28)                1.2254         estimate D2E/DX2                !
 ! R61   R(27,62)                1.0934         estimate D2E/DX2                !
 ! R62   R(27,63)                1.0943         estimate D2E/DX2                !
 ! R63   R(27,64)                1.0928         estimate D2E/DX2                !
 ! A1    A(2,1,29)             108.535          estimate D2E/DX2                !
 ! A2    A(2,1,30)             110.2224         estimate D2E/DX2                !
 ! A3    A(2,1,31)             108.8105         estimate D2E/DX2                !
 ! A4    A(29,1,30)            109.9078         estimate D2E/DX2                !
 ! A5    A(29,1,31)            109.8585         estimate D2E/DX2                !
 ! A6    A(30,1,31)            109.4861         estimate D2E/DX2                !
 ! A7    A(1,2,3)              120.2059         estimate D2E/DX2                !
 ! A8    A(1,2,32)             116.9247         estimate D2E/DX2                !
 ! A9    A(3,2,32)             118.3594         estimate D2E/DX2                !
 ! A10   A(2,3,4)              121.7711         estimate D2E/DX2                !
 ! A11   A(2,3,5)              116.2393         estimate D2E/DX2                !
 ! A12   A(4,3,5)              121.6477         estimate D2E/DX2                !
 ! A13   A(3,5,6)              112.2837         estimate D2E/DX2                !
 ! A14   A(3,5,7)              106.2084         estimate D2E/DX2                !
 ! A15   A(3,5,25)             105.6829         estimate D2E/DX2                !
 ! A16   A(6,5,7)              110.9141         estimate D2E/DX2                !
 ! A17   A(6,5,25)             112.8726         estimate D2E/DX2                !
 ! A18   A(7,5,25)             108.5084         estimate D2E/DX2                !
 ! A19   A(5,6,33)             111.4751         estimate D2E/DX2                !
 ! A20   A(5,6,34)             111.9449         estimate D2E/DX2                !
 ! A21   A(5,6,35)             111.5514         estimate D2E/DX2                !
 ! A22   A(33,6,34)            106.0003         estimate D2E/DX2                !
 ! A23   A(33,6,35)            107.8866         estimate D2E/DX2                !
 ! A24   A(34,6,35)            107.7066         estimate D2E/DX2                !
 ! A25   A(5,7,8)              116.2838         estimate D2E/DX2                !
 ! A26   A(5,7,36)             110.2657         estimate D2E/DX2                !
 ! A27   A(5,7,37)             107.7412         estimate D2E/DX2                !
 ! A28   A(8,7,36)             109.8137         estimate D2E/DX2                !
 ! A29   A(8,7,37)             106.9058         estimate D2E/DX2                !
 ! A30   A(36,7,37)            105.1707         estimate D2E/DX2                !
 ! A31   A(7,8,9)              113.6463         estimate D2E/DX2                !
 ! A32   A(7,8,38)             107.4708         estimate D2E/DX2                !
 ! A33   A(7,8,39)             111.0008         estimate D2E/DX2                !
 ! A34   A(9,8,38)             107.8436         estimate D2E/DX2                !
 ! A35   A(9,8,39)             110.4111         estimate D2E/DX2                !
 ! A36   A(38,8,39)            106.0893         estimate D2E/DX2                !
 ! A37   A(8,9,10)             111.0332         estimate D2E/DX2                !
 ! A38   A(8,9,40)             109.9331         estimate D2E/DX2                !
 ! A39   A(8,9,41)             110.8492         estimate D2E/DX2                !
 ! A40   A(10,9,40)            111.3307         estimate D2E/DX2                !
 ! A41   A(10,9,41)            107.5025         estimate D2E/DX2                !
 ! A42   A(40,9,41)            106.0595         estimate D2E/DX2                !
 ! A43   A(9,10,11)            127.2144         estimate D2E/DX2                !
 ! A44   A(9,10,42)            115.0602         estimate D2E/DX2                !
 ! A45   A(11,10,42)           117.7143         estimate D2E/DX2                !
 ! A46   A(10,11,12)           127.0031         estimate D2E/DX2                !
 ! A47   A(10,11,43)           117.3731         estimate D2E/DX2                !
 ! A48   A(12,11,43)           115.5984         estimate D2E/DX2                !
 ! A49   A(11,12,13)           113.3159         estimate D2E/DX2                !
 ! A50   A(11,12,44)           110.216          estimate D2E/DX2                !
 ! A51   A(11,12,45)           109.0717         estimate D2E/DX2                !
 ! A52   A(13,12,44)           108.3925         estimate D2E/DX2                !
 ! A53   A(13,12,45)           110.8389         estimate D2E/DX2                !
 ! A54   A(44,12,45)           104.652          estimate D2E/DX2                !
 ! A55   A(12,13,14)           116.8629         estimate D2E/DX2                !
 ! A56   A(12,13,46)           108.3387         estimate D2E/DX2                !
 ! A57   A(12,13,47)           108.6178         estimate D2E/DX2                !
 ! A58   A(14,13,46)           107.469          estimate D2E/DX2                !
 ! A59   A(14,13,47)           109.5459         estimate D2E/DX2                !
 ! A60   A(46,13,47)           105.3998         estimate D2E/DX2                !
 ! A61   A(13,14,15)           117.2099         estimate D2E/DX2                !
 ! A62   A(13,14,48)           109.3114         estimate D2E/DX2                !
 ! A63   A(13,14,49)           106.4072         estimate D2E/DX2                !
 ! A64   A(15,14,48)           109.6881         estimate D2E/DX2                !
 ! A65   A(15,14,49)           108.4879         estimate D2E/DX2                !
 ! A66   A(48,14,49)           105.0019         estimate D2E/DX2                !
 ! A67   A(14,15,16)           110.4297         estimate D2E/DX2                !
 ! A68   A(14,15,17)           109.191          estimate D2E/DX2                !
 ! A69   A(14,15,21)           106.3022         estimate D2E/DX2                !
 ! A70   A(16,15,17)           113.2572         estimate D2E/DX2                !
 ! A71   A(16,15,21)           112.3218         estimate D2E/DX2                !
 ! A72   A(17,15,21)           104.9725         estimate D2E/DX2                !
 ! A73   A(15,16,50)           111.9766         estimate D2E/DX2                !
 ! A74   A(15,16,51)           111.373          estimate D2E/DX2                !
 ! A75   A(15,16,52)           111.5153         estimate D2E/DX2                !
 ! A76   A(50,16,51)           106.16           estimate D2E/DX2                !
 ! A77   A(50,16,52)           107.9134         estimate D2E/DX2                !
 ! A78   A(51,16,52)           107.634          estimate D2E/DX2                !
 ! A79   A(15,17,18)           123.4243         estimate D2E/DX2                !
 ! A80   A(15,17,53)           112.4665         estimate D2E/DX2                !
 ! A81   A(18,17,53)           112.5201         estimate D2E/DX2                !
 ! A82   A(17,18,19)           113.3521         estimate D2E/DX2                !
 ! A83   A(17,18,20)           124.9824         estimate D2E/DX2                !
 ! A84   A(19,18,20)           121.6653         estimate D2E/DX2                !
 ! A85   A(18,19,54)           109.125          estimate D2E/DX2                !
 ! A86   A(18,19,55)           111.381          estimate D2E/DX2                !
 ! A87   A(18,19,56)           109.1588         estimate D2E/DX2                !
 ! A88   A(54,19,55)           109.2862         estimate D2E/DX2                !
 ! A89   A(54,19,56)           109.7681         estimate D2E/DX2                !
 ! A90   A(55,19,56)           108.1038         estimate D2E/DX2                !
 ! A91   A(15,21,22)           121.486          estimate D2E/DX2                !
 ! A92   A(15,21,23)           116.3889         estimate D2E/DX2                !
 ! A93   A(22,21,23)           121.805          estimate D2E/DX2                !
 ! A94   A(21,23,24)           120.2575         estimate D2E/DX2                !
 ! A95   A(21,23,57)           118.5534         estimate D2E/DX2                !
 ! A96   A(24,23,57)           116.9381         estimate D2E/DX2                !
 ! A97   A(23,24,58)           108.52           estimate D2E/DX2                !
 ! A98   A(23,24,59)           110.2356         estimate D2E/DX2                !
 ! A99   A(23,24,60)           108.7539         estimate D2E/DX2                !
 ! A100  A(58,24,59)           109.9506         estimate D2E/DX2                !
 ! A101  A(58,24,60)           109.8761         estimate D2E/DX2                !
 ! A102  A(59,24,60)           109.4833         estimate D2E/DX2                !
 ! A103  A(5,25,26)            123.1263         estimate D2E/DX2                !
 ! A104  A(5,25,61)            113.0237         estimate D2E/DX2                !
 ! A105  A(26,25,61)           112.9762         estimate D2E/DX2                !
 ! A106  A(25,26,27)           113.4372         estimate D2E/DX2                !
 ! A107  A(25,26,28)           124.8612         estimate D2E/DX2                !
 ! A108  A(27,26,28)           121.7008         estimate D2E/DX2                !
 ! A109  A(26,27,62)           111.4196         estimate D2E/DX2                !
 ! A110  A(26,27,63)           109.1327         estimate D2E/DX2                !
 ! A111  A(26,27,64)           109.148          estimate D2E/DX2                !
 ! A112  A(62,27,63)           108.0712         estimate D2E/DX2                !
 ! A113  A(62,27,64)           109.312          estimate D2E/DX2                !
 ! A114  A(63,27,64)           109.7377         estimate D2E/DX2                !
 ! D1    D(29,1,2,3)          -167.9217         estimate D2E/DX2                !
 ! D2    D(29,1,2,32)           36.2799         estimate D2E/DX2                !
 ! D3    D(30,1,2,3)           -47.5084         estimate D2E/DX2                !
 ! D4    D(30,1,2,32)          156.6932         estimate D2E/DX2                !
 ! D5    D(31,1,2,3)            72.5598         estimate D2E/DX2                !
 ! D6    D(31,1,2,32)          -83.2386         estimate D2E/DX2                !
 ! D7    D(1,2,3,4)              9.0288         estimate D2E/DX2                !
 ! D8    D(1,2,3,5)           -177.5821         estimate D2E/DX2                !
 ! D9    D(32,2,3,4)           164.4867         estimate D2E/DX2                !
 ! D10   D(32,2,3,5)           -22.1242         estimate D2E/DX2                !
 ! D11   D(2,3,5,6)             42.9223         estimate D2E/DX2                !
 ! D12   D(2,3,5,7)            -78.4684         estimate D2E/DX2                !
 ! D13   D(2,3,5,25)           166.3822         estimate D2E/DX2                !
 ! D14   D(4,3,5,6)           -143.6798         estimate D2E/DX2                !
 ! D15   D(4,3,5,7)             94.9295         estimate D2E/DX2                !
 ! D16   D(4,3,5,25)           -20.2199         estimate D2E/DX2                !
 ! D17   D(3,5,6,33)           -77.9216         estimate D2E/DX2                !
 ! D18   D(3,5,6,34)            40.6236         estimate D2E/DX2                !
 ! D19   D(3,5,6,35)           161.3991         estimate D2E/DX2                !
 ! D20   D(7,5,6,33)            40.7338         estimate D2E/DX2                !
 ! D21   D(7,5,6,34)           159.279          estimate D2E/DX2                !
 ! D22   D(7,5,6,35)           -79.9455         estimate D2E/DX2                !
 ! D23   D(25,5,6,33)          162.7421         estimate D2E/DX2                !
 ! D24   D(25,5,6,34)          -78.7126         estimate D2E/DX2                !
 ! D25   D(25,5,6,35)           42.0629         estimate D2E/DX2                !
 ! D26   D(3,5,7,8)           -173.7369         estimate D2E/DX2                !
 ! D27   D(3,5,7,36)            60.4352         estimate D2E/DX2                !
 ! D28   D(3,5,7,37)           -53.8339         estimate D2E/DX2                !
 ! D29   D(6,5,7,8)             63.9988         estimate D2E/DX2                !
 ! D30   D(6,5,7,36)           -61.829          estimate D2E/DX2                !
 ! D31   D(6,5,7,37)          -176.0982         estimate D2E/DX2                !
 ! D32   D(25,5,7,8)           -60.523          estimate D2E/DX2                !
 ! D33   D(25,5,7,36)          173.6491         estimate D2E/DX2                !
 ! D34   D(25,5,7,37)           59.38           estimate D2E/DX2                !
 ! D35   D(3,5,25,26)          -78.0305         estimate D2E/DX2                !
 ! D36   D(3,5,25,61)           63.5752         estimate D2E/DX2                !
 ! D37   D(6,5,25,26)           45.0562         estimate D2E/DX2                !
 ! D38   D(6,5,25,61)         -173.338          estimate D2E/DX2                !
 ! D39   D(7,5,25,26)          168.4083         estimate D2E/DX2                !
 ! D40   D(7,5,25,61)          -49.9859         estimate D2E/DX2                !
 ! D41   D(5,7,8,9)            -92.7025         estimate D2E/DX2                !
 ! D42   D(5,7,8,38)           148.056          estimate D2E/DX2                !
 ! D43   D(5,7,8,39)            32.4595         estimate D2E/DX2                !
 ! D44   D(36,7,8,9)            33.3527         estimate D2E/DX2                !
 ! D45   D(36,7,8,38)          -85.8887         estimate D2E/DX2                !
 ! D46   D(36,7,8,39)          158.5147         estimate D2E/DX2                !
 ! D47   D(37,7,8,9)           146.9454         estimate D2E/DX2                !
 ! D48   D(37,7,8,38)           27.704          estimate D2E/DX2                !
 ! D49   D(37,7,8,39)          -87.8926         estimate D2E/DX2                !
 ! D50   D(7,8,9,10)          -177.0586         estimate D2E/DX2                !
 ! D51   D(7,8,9,40)           -53.4168         estimate D2E/DX2                !
 ! D52   D(7,8,9,41)            63.5193         estimate D2E/DX2                !
 ! D53   D(38,8,9,10)          -58.0301         estimate D2E/DX2                !
 ! D54   D(38,8,9,40)           65.6118         estimate D2E/DX2                !
 ! D55   D(38,8,9,41)         -177.4522         estimate D2E/DX2                !
 ! D56   D(39,8,9,10)           57.4648         estimate D2E/DX2                !
 ! D57   D(39,8,9,40)         -178.8933         estimate D2E/DX2                !
 ! D58   D(39,8,9,41)          -61.9573         estimate D2E/DX2                !
 ! D59   D(8,9,10,11)          108.8062         estimate D2E/DX2                !
 ! D60   D(8,9,10,42)          -72.4478         estimate D2E/DX2                !
 ! D61   D(40,9,10,11)         -14.0327         estimate D2E/DX2                !
 ! D62   D(40,9,10,42)         164.7133         estimate D2E/DX2                !
 ! D63   D(41,9,10,11)        -129.7887         estimate D2E/DX2                !
 ! D64   D(41,9,10,42)          48.9573         estimate D2E/DX2                !
 ! D65   D(9,10,11,12)          -2.8177         estimate D2E/DX2                !
 ! D66   D(9,10,11,43)         179.1088         estimate D2E/DX2                !
 ! D67   D(42,10,11,12)        178.4654         estimate D2E/DX2                !
 ! D68   D(42,10,11,43)          0.3919         estimate D2E/DX2                !
 ! D69   D(10,11,12,13)         98.8381         estimate D2E/DX2                !
 ! D70   D(10,11,12,44)        -22.8201         estimate D2E/DX2                !
 ! D71   D(10,11,12,45)       -137.1834         estimate D2E/DX2                !
 ! D72   D(43,11,12,13)        -83.0589         estimate D2E/DX2                !
 ! D73   D(43,11,12,44)        155.2829         estimate D2E/DX2                !
 ! D74   D(43,11,12,45)         40.9196         estimate D2E/DX2                !
 ! D75   D(11,12,13,14)         61.4383         estimate D2E/DX2                !
 ! D76   D(11,12,13,46)        -60.055          estimate D2E/DX2                !
 ! D77   D(11,12,13,47)       -174.0637         estimate D2E/DX2                !
 ! D78   D(44,12,13,14)       -175.8878         estimate D2E/DX2                !
 ! D79   D(44,12,13,46)         62.6189         estimate D2E/DX2                !
 ! D80   D(44,12,13,47)        -51.3898         estimate D2E/DX2                !
 ! D81   D(45,12,13,14)        -61.5705         estimate D2E/DX2                !
 ! D82   D(45,12,13,46)        176.9362         estimate D2E/DX2                !
 ! D83   D(45,12,13,47)         62.9275         estimate D2E/DX2                !
 ! D84   D(12,13,14,15)         65.3134         estimate D2E/DX2                !
 ! D85   D(12,13,14,48)        -60.2478         estimate D2E/DX2                !
 ! D86   D(12,13,14,49)       -173.1468         estimate D2E/DX2                !
 ! D87   D(46,13,14,15)       -172.7387         estimate D2E/DX2                !
 ! D88   D(46,13,14,48)         61.7            estimate D2E/DX2                !
 ! D89   D(46,13,14,49)        -51.199          estimate D2E/DX2                !
 ! D90   D(47,13,14,15)        -58.7133         estimate D2E/DX2                !
 ! D91   D(47,13,14,48)        175.7255         estimate D2E/DX2                !
 ! D92   D(47,13,14,49)         62.8265         estimate D2E/DX2                !
 ! D93   D(13,14,15,16)         50.5091         estimate D2E/DX2                !
 ! D94   D(13,14,15,17)        -74.6469         estimate D2E/DX2                !
 ! D95   D(13,14,15,21)        172.5969         estimate D2E/DX2                !
 ! D96   D(48,14,15,16)        175.8831         estimate D2E/DX2                !
 ! D97   D(48,14,15,17)         50.7271         estimate D2E/DX2                !
 ! D98   D(48,14,15,21)        -62.0292         estimate D2E/DX2                !
 ! D99   D(49,14,15,16)        -69.942          estimate D2E/DX2                !
 ! D100  D(49,14,15,17)        164.902          estimate D2E/DX2                !
 ! D101  D(49,14,15,21)         52.1458         estimate D2E/DX2                !
 ! D102  D(14,15,16,50)        159.3555         estimate D2E/DX2                !
 ! D103  D(14,15,16,51)         40.6555         estimate D2E/DX2                !
 ! D104  D(14,15,16,52)        -79.6063         estimate D2E/DX2                !
 ! D105  D(17,15,16,50)        -77.8318         estimate D2E/DX2                !
 ! D106  D(17,15,16,51)        163.4682         estimate D2E/DX2                !
 ! D107  D(17,15,16,52)         43.2064         estimate D2E/DX2                !
 ! D108  D(21,15,16,50)         40.8826         estimate D2E/DX2                !
 ! D109  D(21,15,16,51)        -77.8174         estimate D2E/DX2                !
 ! D110  D(21,15,16,52)        161.9208         estimate D2E/DX2                !
 ! D111  D(14,15,17,18)        166.5071         estimate D2E/DX2                !
 ! D112  D(14,15,17,53)        -53.1823         estimate D2E/DX2                !
 ! D113  D(16,15,17,18)         43.0113         estimate D2E/DX2                !
 ! D114  D(16,15,17,53)       -176.6781         estimate D2E/DX2                !
 ! D115  D(21,15,17,18)        -79.8678         estimate D2E/DX2                !
 ! D116  D(21,15,17,53)         60.4428         estimate D2E/DX2                !
 ! D117  D(14,15,21,22)         94.5006         estimate D2E/DX2                !
 ! D118  D(14,15,21,23)        -79.1138         estimate D2E/DX2                !
 ! D119  D(16,15,21,22)       -144.621          estimate D2E/DX2                !
 ! D120  D(16,15,21,23)         41.7645         estimate D2E/DX2                !
 ! D121  D(17,15,21,22)        -21.1409         estimate D2E/DX2                !
 ! D122  D(17,15,21,23)        165.2447         estimate D2E/DX2                !
 ! D123  D(15,17,18,19)        168.4759         estimate D2E/DX2                !
 ! D124  D(15,17,18,20)        -11.3809         estimate D2E/DX2                !
 ! D125  D(53,17,18,19)         28.1838         estimate D2E/DX2                !
 ! D126  D(53,17,18,20)       -151.6731         estimate D2E/DX2                !
 ! D127  D(17,18,19,54)       -100.2342         estimate D2E/DX2                !
 ! D128  D(17,18,19,55)         20.5085         estimate D2E/DX2                !
 ! D129  D(17,18,19,56)        139.8029         estimate D2E/DX2                !
 ! D130  D(20,18,19,54)         79.6281         estimate D2E/DX2                !
 ! D131  D(20,18,19,55)       -159.6292         estimate D2E/DX2                !
 ! D132  D(20,18,19,56)        -40.3349         estimate D2E/DX2                !
 ! D133  D(15,21,23,24)       -177.616          estimate D2E/DX2                !
 ! D134  D(15,21,23,57)        -21.475          estimate D2E/DX2                !
 ! D135  D(22,21,23,24)          8.7916         estimate D2E/DX2                !
 ! D136  D(22,21,23,57)        164.9326         estimate D2E/DX2                !
 ! D137  D(21,23,24,58)       -167.6081         estimate D2E/DX2                !
 ! D138  D(21,23,24,59)        -47.1437         estimate D2E/DX2                !
 ! D139  D(21,23,24,60)         72.8937         estimate D2E/DX2                !
 ! D140  D(57,23,24,58)         35.8784         estimate D2E/DX2                !
 ! D141  D(57,23,24,59)        156.3428         estimate D2E/DX2                !
 ! D142  D(57,23,24,60)        -83.6198         estimate D2E/DX2                !
 ! D143  D(5,25,26,27)         168.4698         estimate D2E/DX2                !
 ! D144  D(5,25,26,28)         -11.1828         estimate D2E/DX2                !
 ! D145  D(61,25,26,27)         26.8481         estimate D2E/DX2                !
 ! D146  D(61,25,26,28)       -152.8046         estimate D2E/DX2                !
 ! D147  D(25,26,27,62)         20.2901         estimate D2E/DX2                !
 ! D148  D(25,26,27,63)        139.5512         estimate D2E/DX2                !
 ! D149  D(25,26,27,64)       -100.5247         estimate D2E/DX2                !
 ! D150  D(28,26,27,62)       -160.0449         estimate D2E/DX2                !
 ! D151  D(28,26,27,63)        -40.7838         estimate D2E/DX2                !
 ! D152  D(28,26,27,64)         79.1403         estimate D2E/DX2                !
 --------------------------------------------------------------------------------
 Trust Radius=3.00D-01 FncErr=1.00D-07 GrdErr=1.00D-07
 Number of steps in this run= 339 maximum allowed number of steps= 384.
 GradGradGradGradGradGradGradGradGradGradGradGradGradGradGradGradGradGrad

 Stoichiometry    C20H36N4O4
 Framework group  C1[X(C20H36N4O4)]
 Deg. of freedom   186
 Full point group                 C1      NOp   1
 Largest Abelian subgroup         C1      NOp   1
 Largest concise Abelian subgroup C1      NOp   1
                         Standard orientation:                         
 ---------------------------------------------------------------------
 Center     Atomic      Atomic             Coordinates (Angstroms)
 Number     Number       Type             X           Y           Z
 ---------------------------------------------------------------------
      1          6           0        6.754145   -3.196631   -1.216360
      2          7           0        5.754992   -2.351303   -0.611879
      3          6           0        5.875706   -0.975695   -0.677304
      4          8           0        6.731386   -0.431162   -1.380537
      5          6           0        4.770170   -0.147993    0.060091
      6          6           0        4.428527   -0.730941    1.437064
      7          6           0        3.524579   -0.159311   -0.872481
      8          6           0        2.339428    0.718713   -0.436587
      9          6           0        1.300954   -0.025978    0.406803
     10          6           0        0.137415    0.864616    0.739522
     11          6           0       -1.110208    0.788039    0.248978
     12          6           0       -1.615665   -0.171280   -0.791240
     13          6           0       -2.352888   -1.374431   -0.198480
     14          6           0       -3.623703   -1.078060    0.619145
     15          6           0       -4.833660   -0.465532   -0.143557
     16          6           0       -5.146379   -1.289061   -1.403643
     17          7           0       -4.557020    0.958371   -0.430432
     18          6           0       -5.296970    1.712445   -1.317196
     19          6           0       -5.003424    3.188503   -1.236180
     20          8           0       -6.121076    1.262820   -2.104486
     21          6           0       -6.029322   -0.449609    0.868839
     22          8           0       -6.286249    0.549028    1.547496
     23          7           0       -6.688938   -1.648144    1.058700
     24          6           0       -7.834222   -1.716982    1.933158
     25          7           0        5.289711    1.237520    0.134100
     26          6           0        6.239348    1.638529    1.050629
     27          6           0        6.810767    3.002668    0.763556
     28          8           0        6.610357    0.974083    2.011033
     29          1           0        6.372230   -4.219769   -1.245067
     30          1           0        6.976153   -2.853601   -2.230279
     31          1           0        7.663505   -3.156440   -0.610370
     32          1           0        5.213219   -2.750450    0.142506
     33          1           0        3.778009   -1.608853    1.350961
     34          1           0        5.322703   -1.069014    1.971762
     35          1           0        3.919849    0.003816    2.070007
     36          1           0        3.183076   -1.189948   -1.038653
     37          1           0        3.843304    0.201596   -1.862150
     38          1           0        1.840001    1.075006   -1.348186
     39          1           0        2.687122    1.614794    0.089118
     40          1           0        0.973375   -0.930450   -0.117194
     41          1           0        1.736849   -0.364573    1.351485
     42          1           0        0.345780    1.640939    1.477582
     43          1           0       -1.837043    1.511633    0.614343
     44          1           0       -0.782977   -0.541927   -1.401589
     45          1           0       -2.255741    0.369286   -1.495264
     46          1           0       -1.657653   -1.917217    0.457414
     47          1           0       -2.592765   -2.071838   -1.009040
     48          1           0       -3.364491   -0.440328    1.474937
     49          1           0       -3.937963   -2.033121    1.061174
     50          1           0       -6.170580   -1.125061   -1.756987
     51          1           0       -5.059069   -2.363470   -1.210118
     52          1           0       -4.463841   -1.043214   -2.223622
     53          1           0       -4.299709    1.478649    0.401717
     54          1           0       -5.785702    3.677512   -0.650312
     55          1           0       -4.032143    3.376854   -0.770260
     56          1           0       -4.982330    3.606348   -2.246909
     57          1           0       -6.615617   -2.358045    0.343996
     58          1           0       -8.066947   -2.768664    2.118260
     59          1           0       -7.619734   -1.210898    2.877284
     60          1           0       -8.681476   -1.229419    1.442096
     61          1           0        5.414925    1.663584   -0.778042
     62          1           0        6.150016    3.583887    0.114576
     63          1           0        6.927475    3.548020    1.705048
     64          1           0        7.784069    2.889047    0.279764
 ---------------------------------------------------------------------
 Rotational constants (GHZ):      0.3490593      0.0448303      0.0432496
 Standard basis: 6-31G(d) (6D, 7F)
 There are   492 symmetry adapted basis functions of A   symmetry.
 Integral buffers will be    131072 words long.
 Raffenetti 1 integral format.
 Two-electron integral symmetry is turned on.
   492 basis functions,   928 primitive gaussians,   492 cartesian basis functions
   108 alpha electrons      108 beta electrons
       nuclear repulsion energy      2618.9348332323 Hartrees.
 NAtoms=   64 NActive=   64 NUniq=   64 SFac= 7.50D-01 NAtFMM=   80 NAOKFM=F Big=T
 One-electron integrals computed using PRISM.
 NBasis=   492 RedAO= T  NBF=   492
 NBsUse=   492 1.00D-06 NBFU=   492
 Harris functional with IExCor=  205 diagonalized for initial guess.
 ExpMin= 1.61D-01 ExpMax= 5.48D+03 ExpMxC= 8.25D+02 IAcc=1 IRadAn=         1 AccDes= 0.00D+00
 HarFok:  IExCor=  205 AccDes= 0.00D+00 IRadAn=         1 IDoV= 1
 ScaDFX=  1.000000  1.000000  1.000000  1.000000
 FoFCou: FMM=F IPFlag=           0 FMFlag=      100000 FMFlg1=           1
         NFxFlg=           0 DoJE=T BraDBF=F KetDBF=T FulRan=T
         Omega=  0.000000  0.000000  1.000000  0.000000  0.000000 ICntrl=     500 IOpCl=  0
         NMat0=    1 NMatS0=    1 NMatT0=    0 NMatD0=    1 NMtDS0=    0 NMtDT0=    0
         I1Cent=           4 NGrid=           0.
 Petite list used in FoFCou.
 Initial guess orbital symmetries:
       Occupied  (A) (A) (A) (A) (A) (A) (A) (A) (A) (A) (A) (A)
                 (A) (A) (A) (A) (A) (A) (A) (A) (A) (A) (A) (A)
                 (A) (A) (A) (A) (A) (A) (A) (A) (A) (A) (A) (A)
                 (A) (A) (A) (A) (A) (A) (A) (A) (A) (A) (A) (A)
                 (A) (A) (A) (A) (A) (A) (A) (A) (A) (A) (A) (A)
                 (A) (A) (A) (A) (A) (A) (A) (A) (A) (A) (A) (A)
                 (A) (A) (A) (A) (A) (A) (A) (A) (A) (A) (A) (A)
                 (A) (A) (A) (A) (A) (A) (A) (A) (A) (A) (A) (A)
                 (A) (A) (A) (A) (A) (A) (A) (A) (A) (A) (A) (A)
       Virtual   (A) (A) (A) (A) (A) (A) (A) (A) (A) (A) (A) (A)
                 (A) (A) (A) (A) (A) (A) (A) (A) (A) (A) (A) (A)
                 (A) (A) (A) (A) (A) (A) (A) (A) (A) (A) (A) (A)
                 (A) (A) (A) (A) (A) (A) (A) (A) (A) (A) (A) (A)
                 (A) (A) (A) (A) (A) (A) (A) (A) (A) (A) (A) (A)
                 (A) (A) (A) (A) (A) (A) (A) (A) (A) (A) (A) (A)
                 (A) (A) (A) (A) (A) (A) (A) (A) (A) (A) (A) (A)
                 (A) (A) (A) (A) (A) (A) (A) (A) (A) (A) (A) (A)
                 (A) (A) (A) (A) (A) (A) (A) (A) (A) (A) (A) (A)
                 (A) (A) (A) (A) (A) (A) (A) (A) (A) (A) (A) (A)
                 (A) (A) (A) (A) (A) (A) (A) (A) (A) (A) (A) (A)
                 (A) (A) (A) (A) (A) (A) (A) (A) (A) (A) (A) (A)
                 (A) (A) (A) (A) (A) (A) (A) (A) (A) (A) (A) (A)
                 (A) (A) (A) (A) (A) (A) (A) (A) (A) (A) (A) (A)
                 (A) (A) (A) (A) (A) (A) (A) (A) (A) (A) (A) (A)
                 (A) (A) (A) (A) (A) (A) (A) (A) (A) (A) (A) (A)
                 (A) (A) (A) (A) (A) (A) (A) (A) (A) (A) (A) (A)
                 (A) (A) (A) (A) (A) (A) (A) (A) (A) (A) (A) (A)
                 (A) (A) (A) (A) (A) (A) (A) (A) (A) (A) (A) (A)
                 (A) (A) (A) (A) (A) (A) (A) (A) (A) (A) (A) (A)
                 (A) (A) (A) (A) (A) (A) (A) (A) (A) (A) (A) (A)
                 (A) (A) (A) (A) (A) (A) (A) (A) (A) (A) (A) (A)
                 (A) (A) (A) (A) (A) (A) (A) (A) (A) (A) (A) (A)
                 (A) (A) (A) (A) (A) (A) (A) (A) (A) (A) (A) (A)
                 (A) (A) (A) (A) (A) (A) (A) (A) (A) (A) (A) (A)
                 (A) (A) (A) (A) (A) (A) (A) (A) (A) (A) (A) (A)
                 (A) (A) (A) (A) (A) (A) (A) (A) (A) (A) (A) (A)
                 (A) (A) (A) (A) (A) (A) (A) (A) (A) (A) (A) (A)
                 (A) (A) (A) (A) (A) (A) (A) (A) (A) (A) (A) (A)
                 (A) (A) (A) (A) (A) (A) (A) (A) (A) (A) (A) (A)
                 (A) (A) (A) (A) (A) (A) (A) (A) (A) (A) (A) (A)
                 (A) (A) (A) (A) (A) (A) (A) (A) (A) (A) (A) (A)
 The electronic state of the initial guess is 1-A.
 Requested convergence on RMS density matrix=1.00D-08 within 128 cycles.
 Requested convergence on MAX density matrix=1.00D-06.
 Requested convergence on             energy=1.00D-06.
 No special actions if energy rises.
 Integral accuracy reduced to 1.0D-05 until final iterations.
 Initial convergence to 1.0D-05 achieved.  Increase integral accuracy.
 SCF Done:  E(RHF) =  -1295.59357416     A.U. after   14 cycles
             Convg  =    0.8835D-08             -V/T =  2.0024

 **********************************************************************

            Population analysis using the SCF density.

 **********************************************************************

 Orbital symmetries:
 BldTbl:  Degeneracy threshold= 1.00D-02
       Occupied  (A) (A) (A) (A) (A) (A) (A) (A) (A) (A) (A) (A)
                 (A) (A) (A) (A) (A) (A) (A) (A) (A) (A) (A) (A)
                 (A) (A) (A) (A) (A) (A) (A) (A) (A) (A) (A) (A)
                 (A) (A) (A) (A) (A) (A) (A) (A) (A) (A) (A) (A)
                 (A) (A) (A) (A) (A) (A) (A) (A) (A) (A) (A) (A)
                 (A) (A) (A) (A) (A) (A) (A) (A) (A) (A) (A) (A)
                 (A) (A) (A) (A) (A) (A) (A) (A) (A) (A) (A) (A)
                 (A) (A) (A) (A) (A) (A) (A) (A) (A) (A) (A) (A)
                 (A) (A) (A) (A) (A) (A) (A) (A) (A) (A) (A) (A)
       Virtual   (A) (A) (A) (A) (A) (A) (A) (A) (A) (A) (A) (A)
                 (A) (A) (A) (A) (A) (A) (A) (A) (A) (A) (A) (A)
                 (A) (A) (A) (A) (A) (A) (A) (A) (A) (A) (A) (A)
                 (A) (A) (A) (A) (A) (A) (A) (A) (A) (A) (A) (A)
                 (A) (A) (A) (A) (A) (A) (A) (A) (A) (A) (A) (A)
                 (A) (A) (A) (A) (A) (A) (A) (A) (A) (A) (A) (A)
                 (A) (A) (A) (A) (A) (A) (A) (A) (A) (A) (A) (A)
                 (A) (A) (A) (A) (A) (A) (A) (A) (A) (A) (A) (A)
                 (A) (A) (A) (A) (A) (A) (A) (A) (A) (A) (A) (A)
                 (A) (A) (A) (A) (A) (A) (A) (A) (A) (A) (A) (A)
                 (A) (A) (A) (A) (A) (A) (A) (A) (A) (A) (A) (A)
                 (A) (A) (A) (A) (A) (A) (A) (A) (A) (A) (A) (A)
                 (A) (A) (A) (A) (A) (A) (A) (A) (A) (A) (A) (A)
                 (A) (A) (A) (A) (A) (A) (A) (A) (A) (A) (A) (A)
                 (A) (A) (A) (A) (A) (A) (A) (A) (A) (A) (A) (A)
                 (A) (A) (A) (A) (A) (A) (A) (A) (A) (A) (A) (A)
                 (A) (A) (A) (A) (A) (A) (A) (A) (A) (A) (A) (A)
                 (A) (A) (A) (A) (A) (A) (A) (A) (A) (A) (A) (A)
                 (A) (A) (A) (A) (A) (A) (A) (A) (A) (A) (A) (A)
                 (A) (A) (A) (A) (A) (A) (A) (A) (A) (A) (A) (A)
                 (A) (A) (A) (A) (A) (A) (A) (A) (A) (A) (A) (A)
                 (A) (A) (A) (A) (A) (A) (A) (A) (A) (A) (A) (A)
                 (A) (A) (A) (A) (A) (A) (A) (A) (A) (A) (A) (A)
                 (A) (A) (A) (A) (A) (A) (A) (A) (A) (A) (A) (A)
                 (A) (A) (A) (A) (A) (A) (A) (A) (A) (A) (A) (A)
                 (A) (A) (A) (A) (A) (A) (A) (A) (A) (A) (A) (A)
                 (A) (A) (A) (A) (A) (A) (A) (A) (A) (A) (A) (A)
                 (A) (A) (A) (A) (A) (A) (A) (A) (A) (A) (A) (A)
                 (A) (A) (A) (A) (A) (A) (A) (A) (A) (A) (A) (A)
                 (A) (A) (A) (A) (A) (A) (A) (A) (A) (A) (A) (A)
                 (A) (A) (A) (A) (A) (A) (A) (A) (A) (A) (A) (A)
                 (A) (A) (A) (A) (A) (A) (A) (A) (A) (A) (A) (A)
 The electronic state is 1-A.
 Alpha  occ. eigenvalues --  -20.53331 -20.53172 -20.52506 -20.52363 -15.59213
 Alpha  occ. eigenvalues --  -15.59139 -15.58520 -15.58506 -11.35624 -11.35512
 Alpha  occ. eigenvalues --  -11.35263 -11.35169 -11.30090 -11.29995 -11.26120
 Alpha  occ. eigenvalues --  -11.26044 -11.24219 -11.24214 -11.23386 -11.23229
 Alpha  occ. eigenvalues --  -11.23150 -11.23142 -11.23126 -11.23118 -11.23027
 Alpha  occ. eigenvalues --  -11.22989 -11.22921 -11.22607  -1.38101  -1.37940
 Alpha  occ. eigenvalues --   -1.37009  -1.36861  -1.23196  -1.23035  -1.22825
 Alpha  occ. eigenvalues --   -1.22704  -1.11105  -1.09544  -1.07442  -1.04391
 Alpha  occ. eigenvalues --   -1.00825  -0.99028  -0.98713  -0.95781  -0.94890
 Alpha  occ. eigenvalues --   -0.94823  -0.92585  -0.88082  -0.86083  -0.81287
 Alpha  occ. eigenvalues --   -0.80170  -0.79252  -0.79077  -0.75775  -0.75635
 Alpha  occ. eigenvalues --   -0.72384  -0.72013  -0.71835  -0.68078  -0.67642
 Alpha  occ. eigenvalues --   -0.66382  -0.65631  -0.65093  -0.63618  -0.63032
 Alpha  occ. eigenvalues --   -0.62646  -0.62280  -0.61891  -0.61724  -0.61134
 Alpha  occ. eigenvalues --   -0.60530  -0.60209  -0.59442  -0.58582  -0.58153
 Alpha  occ. eigenvalues --   -0.57961  -0.57388  -0.56263  -0.55960  -0.55797
 Alpha  occ. eigenvalues --   -0.55667  -0.55533  -0.55081  -0.54918  -0.54089
 Alpha  occ. eigenvalues --   -0.53188  -0.52993  -0.52648  -0.52096  -0.51139
 Alpha  occ. eigenvalues --   -0.50608  -0.50178  -0.49880  -0.49364  -0.48972
 Alpha  occ. eigenvalues --   -0.48760  -0.47316  -0.46643  -0.45424  -0.42461
 Alpha  occ. eigenvalues --   -0.42085  -0.41395  -0.41298  -0.39247  -0.39219
 Alpha  occ. eigenvalues --   -0.38706  -0.38559  -0.34500
 Alpha virt. eigenvalues --    0.16615   0.18228   0.18866   0.19161   0.19441
 Alpha virt. eigenvalues --    0.20111   0.20604   0.21660   0.23088   0.23127
 Alpha virt. eigenvalues --    0.24611   0.25185   0.25436   0.25879   0.26368
 Alpha virt. eigenvalues --    0.26941   0.27621   0.28587   0.28898   0.29415
 Alpha virt. eigenvalues --    0.29745   0.29890   0.30461   0.30621   0.30907
 Alpha virt. eigenvalues --    0.31067   0.31343   0.31953   0.32212   0.32592
 Alpha virt. eigenvalues --    0.32827   0.33364   0.33461   0.33513   0.34224
 Alpha virt. eigenvalues --    0.35164   0.35684   0.36558   0.36781   0.36999
 Alpha virt. eigenvalues --    0.37143   0.37654   0.38030   0.38217   0.39231
 Alpha virt. eigenvalues --    0.39655   0.40235   0.41001   0.41858   0.42513
 Alpha virt. eigenvalues --    0.43551   0.43916   0.44709   0.45360   0.46340
 Alpha virt. eigenvalues --    0.46525   0.47655   0.48351   0.50138   0.50226
 Alpha virt. eigenvalues --    0.53216   0.55478   0.55525   0.58569   0.59741
 Alpha virt. eigenvalues --    0.60764   0.60835   0.62423   0.68816   0.69327
 Alpha virt. eigenvalues --    0.70772   0.71225   0.72035   0.72831   0.73855
 Alpha virt. eigenvalues --    0.74511   0.74940   0.75269   0.75570   0.75878
 Alpha virt. eigenvalues --    0.76266   0.76850   0.77045   0.77266   0.77797
 Alpha virt. eigenvalues --    0.79988   0.80530   0.80751   0.81372   0.81862
 Alpha virt. eigenvalues --    0.83207   0.83545   0.84245   0.84835   0.85664
 Alpha virt. eigenvalues --    0.86112   0.87231   0.88565   0.88910   0.90136
 Alpha virt. eigenvalues --    0.90293   0.91684   0.92039   0.92322   0.92635
 Alpha virt. eigenvalues --    0.94474   0.94790   0.95390   0.95968   0.96852
 Alpha virt. eigenvalues --    0.97708   0.98015   0.98400   0.98722   0.99486
 Alpha virt. eigenvalues --    0.99949   1.00841   1.01307   1.02234   1.03159
 Alpha virt. eigenvalues --    1.04294   1.04768   1.05774   1.06309   1.06894
 Alpha virt. eigenvalues --    1.07321   1.09101   1.09226   1.09895   1.10291
 Alpha virt. eigenvalues --    1.11024   1.11145   1.12230   1.12676   1.12929
 Alpha virt. eigenvalues --    1.13131   1.13308   1.13810   1.13886   1.14413
 Alpha virt. eigenvalues --    1.14748   1.15290   1.15544   1.15967   1.16194
 Alpha virt. eigenvalues --    1.16646   1.17544   1.17967   1.18528   1.18679
 Alpha virt. eigenvalues --    1.18854   1.19237   1.19346   1.19663   1.19737
 Alpha virt. eigenvalues --    1.20129   1.20803   1.21200   1.21435   1.21504
 Alpha virt. eigenvalues --    1.22618   1.22997   1.23293   1.23844   1.24178
 Alpha virt. eigenvalues --    1.24918   1.25963   1.26409   1.26568   1.27178
 Alpha virt. eigenvalues --    1.27872   1.28291   1.29604   1.30210   1.31143
 Alpha virt. eigenvalues --    1.31537   1.33067   1.34361   1.35246   1.36320
 Alpha virt. eigenvalues --    1.36632   1.37052   1.39852   1.39987   1.42051
 Alpha virt. eigenvalues --    1.42401   1.43376   1.43938   1.45434   1.47151
 Alpha virt. eigenvalues --    1.48700   1.49273   1.50110   1.51228   1.52873
 Alpha virt. eigenvalues --    1.53925   1.55784   1.56285   1.57270   1.60661
 Alpha virt. eigenvalues --    1.61904   1.63780   1.66651   1.67229   1.69068
 Alpha virt. eigenvalues --    1.69960   1.71556   1.71968   1.72772   1.73033
 Alpha virt. eigenvalues --    1.74727   1.77063   1.77582   1.78416   1.78990
 Alpha virt. eigenvalues --    1.80996   1.81354   1.82822   1.84066   1.86578
 Alpha virt. eigenvalues --    1.88044   1.88794   1.91146   1.92297   1.94977
 Alpha virt. eigenvalues --    1.96861   1.97486   1.98414   2.00588   2.01065
 Alpha virt. eigenvalues --    2.01551   2.02853   2.03105   2.03753   2.05900
 Alpha virt. eigenvalues --    2.06985   2.08446   2.08764   2.09176   2.09674
 Alpha virt. eigenvalues --    2.09983   2.11696   2.12547   2.14564   2.15291
 Alpha virt. eigenvalues --    2.15758   2.15962   2.16451   2.17207   2.18146
 Alpha virt. eigenvalues --    2.18606   2.19668   2.20087   2.20295   2.20880
 Alpha virt. eigenvalues --    2.22294   2.22530   2.24136   2.25021   2.25417
 Alpha virt. eigenvalues --    2.26091   2.27098   2.27638   2.28214   2.30303
 Alpha virt. eigenvalues --    2.30937   2.31888   2.32178   2.32495   2.33839
 Alpha virt. eigenvalues --    2.34480   2.34949   2.36220   2.36895   2.37612
 Alpha virt. eigenvalues --    2.38271   2.39140   2.40688   2.42011   2.44016
 Alpha virt. eigenvalues --    2.44147   2.45947   2.46614   2.47340   2.47473
 Alpha virt. eigenvalues --    2.51198   2.51670   2.52277   2.53149   2.53980
 Alpha virt. eigenvalues --    2.54311   2.57018   2.57472   2.57884   2.59304
 Alpha virt. eigenvalues --    2.60528   2.60883   2.61124   2.61344   2.63676
 Alpha virt. eigenvalues --    2.64831   2.65261   2.65907   2.68037   2.69220
 Alpha virt. eigenvalues --    2.70241   2.70784   2.71367   2.72339   2.73882
 Alpha virt. eigenvalues --    2.74719   2.75797   2.76832   2.77035   2.78518
 Alpha virt. eigenvalues --    2.79889   2.80373   2.81212   2.84169   2.85240
 Alpha virt. eigenvalues --    2.85987   2.87877   2.90074   2.91202   2.93152
 Alpha virt. eigenvalues --    2.93739   2.94108   2.95023   2.97395   2.99172
 Alpha virt. eigenvalues --    3.01232   3.02776   3.03431   3.04967   3.05375
 Alpha virt. eigenvalues --    3.06683   3.10392   3.10766   3.11957   3.12715
 Alpha virt. eigenvalues --    3.15301   3.17941   3.20832   3.25306   3.25343
 Alpha virt. eigenvalues --    3.29228   3.29384   3.37788   3.37897   3.38629
 Alpha virt. eigenvalues --    3.38798   3.41160   3.47381   3.47519   3.53931
 Alpha virt. eigenvalues --    3.54035   4.34148   4.34839   4.46635   4.46823
 Alpha virt. eigenvalues --    4.49696   4.50285   4.54877   4.56104   4.58566
 Alpha virt. eigenvalues --    4.61724   4.62887   4.63291   4.65932   4.69854
 Alpha virt. eigenvalues --    4.70893   4.71553   4.73426   4.81330   4.83548
 Alpha virt. eigenvalues --    4.84896   4.86314   4.92573   4.93010   4.94756
 Alpha virt. eigenvalues --    4.98779   5.02132   5.18005   5.19136
          Condensed to atoms (all electrons):
 Mulliken atomic charges:
              1
     1  C   -0.277177
     2  N   -0.794997
     3  C    0.792761
     4  O   -0.645396
     5  C    0.106810
     6  C   -0.515092
     7  C   -0.326964
     8  C   -0.315498
     9  C   -0.352602
    10  C   -0.168909
    11  C   -0.177289
    12  C   -0.346047
    13  C   -0.307585
    14  C   -0.324049
    15  C    0.105792
    16  C   -0.516380
    17  N   -0.794009
    18  C    0.769346
    19  C   -0.588148
    20  O   -0.621029
    21  C    0.791684
    22  O   -0.645703
    23  N   -0.795137
    24  C   -0.277061
    25  N   -0.789714
    26  C    0.771690
    27  C   -0.587013
    28  O   -0.622694
    29  H    0.166560
    30  H    0.207285
    31  H    0.177600
    32  H    0.391590
    33  H    0.146529
    34  H    0.222612
    35  H    0.197740
    36  H    0.179047
    37  H    0.177650
    38  H    0.171646
    39  H    0.186959
    40  H    0.165789
    41  H    0.174420
    42  H    0.177390
    43  H    0.164136
    44  H    0.165507
    45  H    0.190171
    46  H    0.167280
    47  H    0.163396
    48  H    0.181743
    49  H    0.180541
    50  H    0.222246
    51  H    0.147714
    52  H    0.198994
    53  H    0.397122
    54  H    0.213645
    55  H    0.174461
    56  H    0.208312
    57  H    0.392538
    58  H    0.167182
    59  H    0.207854
    60  H    0.177438
    61  H    0.392467
    62  H    0.173201
    63  H    0.207716
    64  H    0.213929
 Sum of Mulliken atomic charges =   0.00000
 Mulliken charges with hydrogens summed into heavy atoms:
              1
     1  C    0.274268
     2  N   -0.403407
     3  C    0.792761
     4  O   -0.645396
     5  C    0.106810
     6  C    0.051790
     7  C    0.029733
     8  C    0.043107
     9  C   -0.012393
    10  C    0.008481
    11  C   -0.013154
    12  C    0.009631
    13  C    0.023091
    14  C    0.038235
    15  C    0.105792
    16  C    0.052574
    17  N   -0.396888
    18  C    0.769346
    19  C    0.008270
    20  O   -0.621029
    21  C    0.791684
    22  O   -0.645703
    23  N   -0.402599
    24  C    0.275413
    25  N   -0.397247
    26  C    0.771690
    27  C    0.007833
    28  O   -0.622694
 Sum of Mulliken charges with hydrogens summed into heavy atoms =   0.00000
 DipInt: DoE/N= T F RetVal/Mat= T F Init=T NMatP=  1 IDeriv=0 Min/MaxMlt=  0  4
 Entering OneElI...
 OneElI was handed    32936476 working-precision words.
 Multipole integrals L=0 to 4 MinM= 0 MaxM= 0.
 Requested accuracy = 0.1000D-12
 PrsmSu:  NPrtUS=   1 ThrOK=F IAlg=1
 PRISM was handed    32096765 working-precision words and  9760 shell-pairs
 IPart=  0 NShTot=        9760 NBatch=          72 AvBLen=       135.6
 Electronic moments (au):
       -216.00000000         -0.40813422         -1.40172498         -0.08221789
     -20987.13425123      -2073.51085931      -1190.67196776         11.60241938
        -10.76867020         -1.74313513      -4004.21511549       -720.86316267
       -219.32268748      -3552.80093644       4276.14516380      -5147.58969323
       2064.62965530        -23.42721625        999.05579758      -8394.90785286
   -2888586.00489798     -56402.00949467     -14937.12006046     -61077.12780955
      78389.21674699      20703.08296589      -1486.68715079      -3699.75595123
       1525.98973654    -257093.71307357    -148459.30608292     -11880.22070782
      -2592.74160655      -1260.35071541        216.92542845
 Electronic spatial extent (au):  <R**2>=          24251.3171
 DipInt: DoE/N= F T RetVal/Mat= T F Init=T NMatP=  1 IDeriv=0 Min/MaxMlt=  0  4
 Nuclear    moments (au):
        216.00000000          0.00000000          0.00000000          0.00000000
      20821.54881188       1965.27436391       1050.16166197          0.00000000
          0.00000000          0.00000000       3743.62398883        719.57589613
        217.31173360       3604.93608962      -4530.71440422       5176.60879070
      -2069.82535980          5.13493213      -1001.85245564       8387.17501762
    2807736.32899563      49671.69677592      10741.77756444      64023.79199024
     -80719.32288623     -20984.73702745       1502.27907694       3195.94070404
      -1541.20509262     246412.36147398     133592.37731303      10045.66604765
       2307.67534194       1249.93658558        -99.34626501
 Total      moments (au):
          0.00000000         -0.40813422         -1.40172498         -0.08221789
       -165.58543935       -108.23649539       -140.51030579         11.60241938
        -10.76867020         -1.74313513       -260.59112666         -1.28726654
         -2.01095389         52.13515318       -254.56924042         29.01909747
         -5.19570450        -18.29228412         -2.79665806         -7.73283524
     -80849.67590235      -6730.31271875      -4195.34249602       2946.66418069
      -2330.10613924       -281.65406155         15.59192615       -503.81524719
        -15.21535608     -10681.35159959     -14866.92876990      -1834.55466016
       -285.06626461        -10.41412982        117.57916343
 Traceless Quadrup. (au):
        -27.47469251         29.87425145         -2.39955895         11.60241938
        -10.76867020         -1.74313513
 Charge=              0.0000 electrons
 Dipole moment (field-independent basis, Debye):
    X=             -1.0374    Y=             -3.5628    Z=             -0.2090  Tot=              3.7167
 Quadrupole moment (field-independent basis, Debye-Ang):
   XX=           -222.7181   YY=           -145.5818   ZZ=           -188.9912
   XY=             15.6057   XZ=            -14.4842   YZ=             -2.3446
 Traceless Quadrupole moment (field-independent basis, Debye-Ang):
   XX=            -36.9544   YY=             40.1819   ZZ=             -3.2275
   XY=             15.6057   XZ=            -14.4842   YZ=             -2.3446
 Octapole moment (field-independent basis, Debye-Ang**2):
  XXX=           -185.4787  YYY=             -0.9162  ZZZ=             -1.4313  XYY=             37.1078
  XXY=           -181.1926  XXZ=             20.6547  XZZ=             -3.6981  YZZ=            -13.0197
  YYZ=             -1.9906  XYZ=             -5.5039
 Hexadecapole moment (field-independent basis, Debye-Ang**3):
 XXXX=         -30451.8628 YYYY=          -2534.9583 ZZZZ=          -1580.1671 XXXY=           1109.8550
 XXXZ=           -877.6296 YYYX=           -106.0844 YYYZ=              5.8727 ZZZX=           -189.7610
 ZZZY=             -5.7308 XXYY=          -4023.1089 XXZZ=          -5599.5979 YYZZ=           -690.9812
 XXYZ=           -107.3696 YYXZ=             -3.9225 ZZXY=             44.2859
 N-N= 2.618934833232D+03 E-N=-8.268123938725D+03  KE= 1.292536844901D+03
 Entering OneElI...
 OneElI was handed    32450256 working-precision words.
 Calculate electrostatic properties
    NBasis =   492  MinDer = 0  MaxDer = 0
    NGrid  =    64  NMatD  =   1
 Requested accuracy = 0.1000D-12
 PrsmSu:  NPrtUS=   1 ThrOK=F IAlg=1
 PRISM was handed    31703403 working-precision words and  8351 shell-pairs
 IPart=  0 NShTot=      534464 NBatch=        8351 AvBLen=        64.0
 --------------------------------------------------------
       Center         ----      EFG at Nuclei      ----
                      3XX-RR        3YY-RR        3ZZ-RR
 --------------------------------------------------------
     1   Atom       -0.056666     -0.033091      0.089757
     2   Atom        0.250516     -0.508238      0.257722
     3   Atom        0.022950      0.178701     -0.201651
     4   Atom       -0.502777      1.140388     -0.637611
     5   Atom        0.065845     -0.211104      0.145259
     6   Atom        0.059154     -0.012924     -0.046230
     7   Atom       -0.027468      0.035494     -0.008025
     8   Atom       -0.020412      0.002675      0.017737
     9   Atom        0.000518     -0.017893      0.017375
    10   Atom        0.176406     -0.072180     -0.104226
    11   Atom        0.167782     -0.062160     -0.105623
    12   Atom        0.023875     -0.008205     -0.015670
    13   Atom       -0.017195     -0.001202      0.018397
    14   Atom       -0.034168      0.029411      0.004757
    15   Atom        0.074632     -0.174361      0.099728
    16   Atom        0.075373     -0.037732     -0.037640
    17   Atom        0.684883     -0.553108     -0.131775
    18   Atom       -0.199492      0.309177     -0.109684
    19   Atom        0.010710     -0.047634      0.036924
    20   Atom       -0.891033      1.373967     -0.482934
    21   Atom       -0.060118      0.137812     -0.077694
    22   Atom        0.562850     -0.296496     -0.266354
    23   Atom        0.168810     -0.259561      0.090751
    24   Atom       -0.130126      0.124985      0.005142
    25   Atom        0.479193     -0.181387     -0.297806
    26   Atom       -0.252816      0.218071      0.034746
    27   Atom        0.018854     -0.051555      0.032701
    28   Atom        0.032426      0.606978     -0.639404
    29   Atom        0.090274     -0.243686      0.153412
    30   Atom        0.125807      0.106361     -0.232168
    31   Atom       -0.162164      0.148243      0.013921
    32   Atom        0.042093      0.071894     -0.113986
    33   Atom       -0.004881     -0.133937      0.138818
    34   Atom       -0.141692      0.106671      0.035022
    35   Atom        0.053969     -0.053385     -0.000583
    36   Atom        0.096607     -0.235367      0.138760
    37   Atom        0.098543      0.098938     -0.197481
    38   Atom        0.050725      0.103626     -0.154350
    39   Atom        0.101247     -0.145243      0.043996
    40   Atom        0.103072     -0.149791      0.046718
    41   Atom        0.072663      0.107309     -0.179972
    42   Atom        0.124082     -0.074803     -0.049279
    43   Atom       -0.058318     -0.046498      0.104816
    44   Atom       -0.109144      0.093652      0.015492
    45   Atom       -0.000767      0.035802     -0.035035
    46   Atom       -0.032374      0.041885     -0.009511
    47   Atom        0.122078     -0.028645     -0.093433
    48   Atom        0.117100     -0.005339     -0.111760
    49   Atom        0.099637     -0.180491      0.080854
    50   Atom       -0.234737      0.141161      0.093575
    51   Atom        0.150012     -0.277112      0.127100
    52   Atom       -0.024496      0.124859     -0.100363
    53   Atom        0.185454      0.005602     -0.191056
    54   Atom       -0.078247      0.053144      0.025103
    55   Atom       -0.198175      0.127991      0.070184
    56   Atom        0.152663      0.077317     -0.229980
    57   Atom        0.190517     -0.098592     -0.091925
    58   Atom        0.125235     -0.261322      0.136087
    59   Atom        0.121747      0.064766     -0.186513
    60   Atom       -0.126210      0.069157      0.057054
    61   Atom        0.197046      0.077679     -0.274725
    62   Atom       -0.011705      0.018160     -0.006455
    63   Atom        0.145443      0.033763     -0.179205
    64   Atom       -0.205604      0.139288      0.066316
 --------------------------------------------------------
                        XY            XZ            YZ
 --------------------------------------------------------
     1   Atom        0.169552      0.109058     -0.117234
     2   Atom        0.102886      0.742203      0.086584
     3   Atom       -0.044227     -0.474965     -0.012014
     4   Atom       -0.871149     -0.131278      0.602170
     5   Atom       -0.072177      0.020725     -0.066759
     6   Atom       -0.037671      0.050519      0.038719
     7   Atom        0.001556     -0.056681     -0.007743
     8   Atom        0.028543      0.034248      0.015101
     9   Atom        0.005623      0.014941      0.003464
    10   Atom       -0.057037      0.116802      0.185320
    11   Atom       -0.051567      0.116090      0.182233
    12   Atom       -0.032504      0.015073     -0.018356
    13   Atom        0.011769      0.029333      0.002459
    14   Atom        0.039253     -0.041300      0.026681
    15   Atom       -0.076567      0.077579      0.094965
    16   Atom       -0.028482     -0.003802     -0.059926
    17   Atom       -0.069807     -0.599058      0.070457
    18   Atom        0.161196      0.408643     -0.005080
    19   Atom       -0.028323      0.000169     -0.004040
    20   Atom       -0.357842      0.056857     -0.833572
    21   Atom        0.102551     -0.431889      0.230850
    22   Atom        0.904421     -0.788305     -0.657592
    23   Atom       -0.418828      0.636043     -0.362226
    24   Atom       -0.026092      0.207118      0.038170
    25   Atom       -0.632023     -0.388682      0.215235
    26   Atom        0.245153      0.291298     -0.255753
    27   Atom       -0.015412      0.003274      0.018723
    28   Atom        1.195384      0.331600      0.582879
    29   Atom       -0.141067      0.005594     -0.015180
    30   Atom       -0.016379      0.087383      0.122560
    31   Atom       -0.003177     -0.200151     -0.014229
    32   Atom       -0.107827      0.261757      0.168863
    33   Atom       -0.210518     -0.020617     -0.032878
    34   Atom        0.115064     -0.165418      0.069456
    35   Atom        0.139590      0.123103     -0.166064
    36   Atom       -0.123431     -0.023134     -0.056289
    37   Atom       -0.039912      0.108501      0.127451
    38   Atom        0.064000     -0.158236      0.115589
    39   Atom       -0.111933     -0.061080     -0.173075
    40   Atom       -0.107557     -0.061261     -0.177090
    41   Atom        0.057854     -0.152560      0.116924
    42   Atom       -0.055821     -0.061051     -0.222535
    43   Atom        0.203137      0.098411     -0.111037
    44   Atom        0.111087      0.183105     -0.085120
    45   Atom        0.121863     -0.169217      0.137332
    46   Atom        0.132976     -0.158668      0.130407
    47   Atom       -0.064544     -0.068281     -0.206594
    48   Atom       -0.053646     -0.079951     -0.195841
    49   Atom       -0.105630      0.047190      0.150169
    50   Atom        0.057321     -0.127111      0.012184
    51   Atom        0.034949     -0.006074      0.080410
    52   Atom       -0.066845      0.207558      0.068362
    53   Atom       -0.070835     -0.146459     -0.220240
    54   Atom        0.141963      0.174165     -0.108366
    55   Atom       -0.068448     -0.173173     -0.028075
    56   Atom       -0.004481      0.007632      0.157106
    57   Atom        0.003343      0.062390     -0.297978
    58   Atom       -0.090981      0.028194      0.070633
    59   Atom       -0.040802     -0.066304     -0.175919
    60   Atom        0.151953     -0.145058      0.089876
    61   Atom       -0.066923      0.037930      0.212756
    62   Atom        0.136964     -0.165242      0.140030
    63   Atom       -0.027927     -0.040139     -0.189693
    64   Atom        0.038680      0.179199     -0.019426
 --------------------------------------------------------


 ---------------------------------------------------------------------------------
              Nuclear Quadrupole in Principal Axis System
 ---------------------------------------------------------------------------------

       Atom             a.u.   MegaHertz   Gauss  10(-4) cm-1        Axes

              Baa    -0.2833   -38.013   -13.564   -12.680  0.6646 -0.6350 -0.3938
     1 C(13)  Bbb     0.1221    16.388     5.847     5.466  0.7423  0.6212  0.2511
              Bcc     0.1612    21.626     7.717     7.214  0.0852 -0.4593  0.8842
 
              Baa    -0.5240   -20.208    -7.211    -6.741 -0.2805  0.9462  0.1615
     2 N(14)  Bbb    -0.4842   -18.675    -6.664    -6.229 -0.6534 -0.3114  0.6900
              Bcc     1.0082    38.883    13.874    12.970  0.7031  0.0880  0.7056
 
              Baa    -0.5792   -77.724   -27.734   -25.926  0.6208  0.0486  0.7825
     3 C(13)  Bbb     0.1772    23.773     8.483     7.930  0.0655  0.9914 -0.1136
              Bcc     0.4021    53.951    19.251    17.996  0.7812 -0.1218 -0.6122
 
              Baa    -0.9589    69.388    24.759    23.145  0.6982  0.4495 -0.5572
     4 O(17)  Bbb    -0.7159    51.804    18.485    17.280  0.6115  0.0305  0.7907
              Bcc     1.6749  -121.192   -43.244   -40.425 -0.3724  0.8927  0.2536
 
              Baa    -0.2382   -31.970   -11.408   -10.664  0.2180  0.9634  0.1559
     5 C(13)  Bbb     0.0689     9.241     3.297     3.082  0.9150 -0.1462 -0.3760
              Bcc     0.1694    22.729     8.110     7.582  0.3395 -0.2247  0.9134
 
              Baa    -0.0971   -13.027    -4.648    -4.345 -0.3738 -0.5205  0.7677
     6 C(13)  Bbb     0.0124     1.668     0.595     0.556  0.0392  0.8181  0.5738
              Bcc     0.0847    11.359     4.053     3.789  0.9267 -0.2445  0.2854
 
              Baa    -0.0754   -10.116    -3.610    -3.374  0.7628  0.0344  0.6458
     7 C(13)  Bbb     0.0305     4.089     1.459     1.364 -0.4070  0.8015  0.4381
              Bcc     0.0449     6.027     2.151     2.010 -0.5025 -0.5970  0.6254
 
              Baa    -0.0475    -6.374    -2.274    -2.126  0.8532 -0.3768 -0.3607
     8 C(13)  Bbb    -0.0061    -0.823    -0.294    -0.275  0.0849  0.7825 -0.6168
              Bcc     0.0536     7.197     2.568     2.401  0.5147  0.4956  0.6996
 
              Baa    -0.0195    -2.616    -0.933    -0.873 -0.2893  0.9569  0.0273
     9 C(13)  Bbb    -0.0074    -0.989    -0.353    -0.330  0.8101  0.2599 -0.5255
              Bcc     0.0269     3.605     1.286     1.202  0.5100  0.1299  0.8503
 
              Baa    -0.3066   -41.143   -14.681   -13.724 -0.2514 -0.6372  0.7286
    10 C(13)  Bbb     0.0875    11.738     4.188     3.915 -0.2684  0.7691  0.5800
              Bcc     0.2191    29.405    10.492     9.808  0.9299  0.0498  0.3644
 
              Baa    -0.2991   -40.130   -14.320   -13.386 -0.2528 -0.6239  0.7395
    11 C(13)  Bbb     0.0874    11.733     4.187     3.914 -0.3003  0.7772  0.5530
              Bcc     0.2116    28.397    10.133     9.472  0.9197  0.0822  0.3838
 
              Baa    -0.0335    -4.501    -1.606    -1.501  0.2970  0.7801  0.5507
    12 C(13)  Bbb    -0.0181    -2.434    -0.868    -0.812 -0.5390 -0.3391  0.7710
              Bcc     0.0517     6.934     2.474     2.313  0.7882 -0.5259  0.3197
 
              Baa    -0.0361    -4.846    -1.729    -1.617  0.8558 -0.2569 -0.4489
    13 C(13)  Bbb    -0.0005    -0.068    -0.024    -0.023  0.1206  0.9431 -0.3098
              Bcc     0.0366     4.914     1.753     1.639  0.5030  0.2110  0.8381
 
              Baa    -0.0808   -10.841    -3.868    -3.616  0.7728 -0.3955  0.4964
    14 C(13)  Bbb     0.0309     4.140     1.477     1.381 -0.5626 -0.0647  0.8242
              Bcc     0.0499     6.701     2.391     2.235  0.2938  0.9162  0.2725
 
              Baa    -0.2347   -31.494   -11.238   -10.505  0.3032  0.8959 -0.3247
    15 C(13)  Bbb     0.0669     8.975     3.203     2.994  0.7461 -0.4352 -0.5040
              Bcc     0.1678    22.518     8.035     7.511  0.5928  0.0895  0.8003
 
              Baa    -0.1006   -13.502    -4.818    -4.504  0.1305  0.7143  0.6876
    16 C(13)  Bbb     0.0174     2.331     0.832     0.778 -0.2683 -0.6422  0.7181
              Bcc     0.0832    11.170     3.986     3.726  0.9545 -0.2781  0.1079
 
              Baa    -0.5663   -21.841    -7.793    -7.285 -0.0622  0.9681 -0.2428
    17 N(14)  Bbb    -0.4410   -17.008    -6.069    -5.673  0.4673  0.2432  0.8500
              Bcc     1.0073    38.849    13.862    12.959  0.8819 -0.0606 -0.4676
 
              Baa    -0.5830   -78.235   -27.916   -26.097  0.7489 -0.1390 -0.6480
    18 C(13)  Bbb     0.1830    24.556     8.762     8.191  0.4715 -0.5754  0.6683
              Bcc     0.4000    53.679    19.154    17.906  0.4657  0.8060  0.3654
 
              Baa    -0.0593    -7.952    -2.838    -2.653  0.3748  0.9263  0.0382
    19 C(13)  Bbb     0.0220     2.954     1.054     0.985  0.9229 -0.3689 -0.1104
              Bcc     0.0373     4.999     1.784     1.667  0.0882 -0.0767  0.9931
 
              Baa    -0.9714    70.287    25.080    23.445  0.9077  0.2565  0.3322
    20 O(17)  Bbb    -0.7697    55.693    19.873    18.577 -0.3979  0.2740  0.8756
              Bcc     1.7410  -125.981   -44.953   -42.023 -0.1336  0.9269 -0.3508
 
              Baa    -0.5798   -77.809   -27.764   -25.954  0.6425 -0.3163  0.6980
    21 C(13)  Bbb     0.1781    23.902     8.529     7.973  0.5036  0.8608 -0.0734
              Bcc     0.4017    53.906    19.235    17.981 -0.5776  0.3987  0.7123
 
              Baa    -0.9595    69.430    24.774    23.159 -0.2040  0.8155  0.5416
    22 O(17)  Bbb    -0.7115    51.486    18.371    17.174  0.6474 -0.3026  0.6995
              Bcc     1.6710  -120.915   -43.146   -40.333  0.7343  0.4934 -0.4662
 
              Baa    -0.5256   -20.273    -7.234    -6.762  0.7067  0.5983 -0.3777
    23 N(14)  Bbb    -0.4828   -18.622    -6.645    -6.212 -0.2219  0.6943  0.6846
              Bcc     1.0085    38.895    13.879    12.974  0.6718 -0.4000  0.6235
 
              Baa    -0.2850   -38.245   -13.647   -12.757  0.8027  0.1057 -0.5869
    24 C(13)  Bbb     0.1223    16.418     5.858     5.476 -0.3280  0.9002 -0.2864
              Bcc     0.1627    21.827     7.788     7.281  0.4981  0.4224  0.7573
 
              Baa    -0.5665   -21.849    -7.796    -7.288  0.5480  0.8262  0.1309
    25 N(14)  Bbb    -0.4460   -17.200    -6.137    -5.737  0.2013 -0.2822  0.9380
              Bcc     1.0125    39.049    13.934    13.025  0.8119 -0.4877 -0.3209
 
              Baa    -0.5828   -78.203   -27.905   -26.086  0.7553 -0.3976 -0.5210
    26 C(13)  Bbb     0.1819    24.413     8.711     8.143  0.6500  0.3531  0.6729
              Bcc     0.4008    53.790    19.194    17.942  0.0836  0.8469 -0.5251
 
              Baa    -0.0587    -7.881    -2.812    -2.629  0.1990  0.9586 -0.2034
    27 C(13)  Bbb     0.0221     2.959     1.056     0.987  0.9800 -0.1947  0.0411
              Bcc     0.0367     4.921     1.756     1.642  0.0002  0.2075  0.9782
 
              Baa    -0.9730    70.404    25.122    23.484 -0.5721  0.6276 -0.5280
    28 O(17)  Bbb    -0.7616    55.111    19.665    18.383 -0.5718  0.1564  0.8054
              Bcc     1.7346  -125.515   -44.787   -41.867  0.5881  0.7626  0.2694
 
              Baa    -0.2956  -157.738   -56.285   -52.616  0.3428  0.9390  0.0275
    29 H(1)   Bbb     0.1358    72.450    25.852    24.167  0.8164 -0.2834 -0.5032
              Bcc     0.1598    85.287    30.433    28.449  0.4647 -0.1949  0.8637
 
              Baa    -0.2906  -155.033   -55.320   -51.713 -0.2073 -0.2964  0.9323
    30 H(1)   Bbb     0.1341    71.574    25.540    23.875  0.7155 -0.6959 -0.0621
              Bcc     0.1564    83.459    29.780    27.839  0.6672  0.6542  0.3563
 
              Baa    -0.2930  -156.346   -55.788   -52.151  0.8369  0.0237  0.5468
    31 H(1)   Bbb     0.1361    72.641    25.920    24.231 -0.4346  0.6360  0.6377
              Bcc     0.1569    83.704    29.868    27.921  0.3327  0.7714 -0.5425
 
              Baa    -0.3947  -210.608   -75.150   -70.251 -0.5421 -0.3939  0.7423
    32 H(1)   Bbb     0.1553    82.873    29.571    27.644 -0.3616  0.9067  0.2171
              Bcc     0.2394   127.735    45.579    42.608  0.7586  0.1507  0.6339
 
              Baa    -0.2931  -156.364   -55.794   -52.157  0.5917  0.8012  0.0892
    33 H(1)   Bbb     0.1414    75.421    26.912    25.158 -0.2916  0.1095  0.9502
              Bcc     0.1517    80.943    28.882    27.000  0.7516 -0.5883  0.2984
 
              Baa    -0.2868  -153.014   -54.599   -51.040  0.8115 -0.3233  0.4869
    34 H(1)   Bbb     0.1342    71.600    25.549    23.883 -0.5201 -0.0194  0.8539
              Bcc     0.1526    81.414    29.051    27.157  0.2666  0.9461  0.1839
 
              Baa    -0.2945  -157.139   -56.071   -52.416 -0.4711  0.6688  0.5751
    35 H(1)   Bbb     0.1406    75.027    26.771    25.026  0.1784  0.7108 -0.6804
[...]
 **** Fit       0.006714
 **** Fit       0.006298
 **** Fit       0.005639
 **** Fit       0.006163
 **** Fit       0.006685
 **** Fit       0.007131
 **** Fit       0.007462
 **** Fit       0.007647
 **** Fit       0.007662
 **** Fit       0.007490
 **** Fit       0.007109
 **** Fit       0.006498
 **** Fit       0.005622
 **** Fit       0.006405
 **** Fit       0.007030
 **** Fit       0.007577
 **** Fit       0.008013
 **** Fit       0.008312
 **** Fit       0.008453
 **** Fit       0.008422
 **** Fit       0.008200
 **** Fit       0.007763
 **** Fit       0.007073
 **** Fit       0.006062
 **** Fit       0.005882
 **** Fit       0.006627
 **** Fit       0.007338
 **** Fit       0.007970
 **** Fit       0.008497
 **** Fit       0.008899
 **** Fit       0.009160
 **** Fit       0.009270
 **** Fit       0.009215
 **** Fit       0.008978
 **** Fit       0.008525
 **** Fit       0.007797
 **** Fit       0.006681
 **** Fit       0.006443
 **** Fit       0.007267
 **** Fit       0.008024
 **** Fit       0.008688
 **** Fit       0.009239
 **** Fit       0.009666
 **** Fit       0.009962
 **** Fit       0.010117
 **** Fit       0.010124
 **** Fit       0.009964
 **** Fit       0.009599
 **** Fit       0.008951
 **** Fit       0.007862
 **** Fit       0.006187
 **** Fit       0.007153
 **** Fit       0.008055
 **** Fit       0.008863
 **** Fit       0.009560
 **** Fit       0.010138
 **** Fit       0.010590
 **** Fit       0.010915
 **** Fit       0.011110
 **** Fit       0.011166
 **** Fit       0.011054
 **** Fit       0.010708
 **** Fit       0.009968
 **** Fit       0.006444
 **** Fit       0.007543
 **** Fit       0.008559
 **** Fit       0.009469
 **** Fit       0.010264
 **** Fit       0.010941
 **** Fit       0.011502
 **** Fit       0.011956
 **** Fit       0.012308
 **** Fit       0.012559
 **** Fit       0.012681
 **** Fit       0.012581
 **** Fit       0.006889
 **** Fit       0.008090
 **** Fit       0.009198
 **** Fit       0.010202
 **** Fit       0.011100
 **** Fit       0.011901
 **** Fit       0.012621
 **** Fit       0.013285
 **** Fit       0.013925
 **** Fit       0.014571
 **** Fit       0.015237
 **** Fit       0.007601
 **** Fit       0.008942
 **** Fit       0.010191
 **** Fit       0.011347
 **** Fit       0.012425
 **** Fit       0.013458
 **** Fit       0.014505
 **** Fit       0.015652
 **** Fit       0.017028
 **** Fit       0.008808
 **** Fit       0.010228
 **** Fit       0.011612
 **** Fit       0.012972
 **** Fit       0.014356
 **** Fit       0.015868
 **** Fit       0.017692
 **** Fit       0.020154
 **** Fit       0.011488
 **** Fit       0.013028
 **** Fit       0.014734
 **** Fit       0.016713
 **** Fit       0.019251
 **** Fit       0.016490
 **** Fit       0.019336
 **** Fit      -0.003620
 **** Fit      -0.005106
 **** Fit      -0.006406
 **** Fit      -0.004762
 **** Fit      -0.002384
 **** Fit      -0.001495
 **** Fit      -0.002622
 **** Fit      -0.006898
 **** Fit      -0.009376
 **** Fit      -0.010095
 **** Fit      -0.008665
 **** Fit      -0.006035
 **** Fit      -0.003370
 **** Fit      -0.001338
 **** Fit      -0.000166
 **** Fit       0.000138
 **** Fit      -0.000392
 **** Fit      -0.001774
 **** Fit      -0.004033
 **** Fit      -0.009036
 **** Fit      -0.012379
 **** Fit      -0.014689
 **** Fit      -0.015044
 **** Fit      -0.013412
 **** Fit      -0.010569
 **** Fit      -0.007409
 **** Fit      -0.004515
 **** Fit      -0.002156
 **** Fit      -0.000412
 **** Fit       0.000728
 **** Fit       0.001317
 **** Fit       0.001414
 **** Fit       0.001061
 **** Fit       0.000254
 **** Fit      -0.001072
 **** Fit      -0.003033
 **** Fit      -0.005725
 **** Fit      -0.011538
 **** Fit      -0.016028
 **** Fit      -0.019949
 **** Fit      -0.022027
 **** Fit      -0.021575
 **** Fit      -0.018978
 **** Fit      -0.015246
 **** Fit      -0.011303
 **** Fit      -0.007684
 **** Fit      -0.004615
 **** Fit      -0.002149
 **** Fit      -0.000266
 **** Fit       0.001081
 **** Fit       0.001949
 **** Fit       0.002400
 **** Fit       0.002490
 **** Fit       0.002265
 **** Fit       0.001749
 **** Fit       0.000927
 **** Fit      -0.000266
 **** Fit      -0.001950
 **** Fit      -0.004300
 **** Fit      -0.007491
 **** Fit      -0.014363
 **** Fit      -0.019865
 **** Fit      -0.014726
 **** Fit      -0.010233
 **** Fit      -0.006493
 **** Fit       0.003330
 **** Fit       0.003482
 **** Fit       0.003356
 **** Fit       0.002994
 **** Fit       0.002420
 **** Fit       0.001629
 **** Fit       0.000576
 **** Fit      -0.000838
 **** Fit      -0.002776
 **** Fit      -0.005491
 **** Fit      -0.009284
 **** Fit       0.003637
 **** Fit       0.002983
 **** Fit       0.002183
 **** Fit       0.001209
 **** Fit      -0.000002
 **** Fit      -0.001563
 **** Fit      -0.003682
 **** Fit      -0.006699
 **** Fit      -0.011090
 **** Fit       0.002108
 **** Fit       0.000990
 **** Fit      -0.000318
 **** Fit      -0.001925
 **** Fit      -0.004074
 **** Fit      -0.007240
 **** Fit      -0.000891
 **** Fit      -0.002455
 **** Fit      -0.008073
 **** Fit      -0.004976
 **** Fit      -0.015105
 **** Fit      -0.010629
 **** Fit      -0.007192
 **** Fit      -0.004498
 **** Fit      -0.002320
 **** Fit      -0.022913
 **** Fit      -0.016506
 **** Fit      -0.011803
 **** Fit      -0.008241
 **** Fit      -0.005464
 **** Fit      -0.003239
 **** Fit      -0.001394
 **** Fit       0.000211
 **** Fit      -0.023917
 **** Fit      -0.017488
 **** Fit      -0.012802
 **** Fit      -0.009234
 **** Fit      -0.006428
 **** Fit      -0.004167
 **** Fit      -0.002302
 **** Fit      -0.000718
 **** Fit       0.000694
 **** Fit      -0.021050
 **** Fit      -0.015610
 **** Fit      -0.011524
 **** Fit      -0.008324
 **** Fit      -0.005754
 **** Fit      -0.003652
 **** Fit      -0.001899
 **** Fit      -0.000397
 **** Fit       0.000950
 **** Fit       0.002243
 **** Fit      -0.024714
 **** Fit      -0.018729
 **** Fit      -0.014208
 **** Fit      -0.010634
 **** Fit      -0.007736
 **** Fit      -0.005354
 **** Fit      -0.003374
 **** Fit      -0.001706
 **** Fit      -0.000264
 **** Fit       0.001038
 **** Fit       0.002294
 **** Fit      -0.026769
 **** Fit      -0.020862
 **** Fit      -0.016196
 **** Fit      -0.012393
 **** Fit      -0.009252
 **** Fit      -0.006643
 **** Fit      -0.004468
 **** Fit      -0.002640
 **** Fit      -0.001077
 **** Fit       0.000302
 **** Fit       0.001585
 **** Fit       0.002874
 **** Fit      -0.026568
 **** Fit      -0.021038
 **** Fit      -0.016366
 **** Fit      -0.012455
 **** Fit      -0.009202
 **** Fit      -0.006507
 **** Fit      -0.004267
 **** Fit      -0.002387
 **** Fit      -0.000773
 **** Fit       0.000672
 **** Fit       0.002056
 **** Fit      -0.026260
 **** Fit      -0.020484
 **** Fit      -0.015587
 **** Fit      -0.011547
 **** Fit      -0.008248
 **** Fit      -0.005551
 **** Fit      -0.003324
 **** Fit      -0.001440
 **** Fit       0.000223
 **** Fit       0.001799
 **** Fit      -0.019762
 **** Fit      -0.014623
 **** Fit      -0.010512
 **** Fit      -0.007218
 **** Fit      -0.004545
 **** Fit      -0.002316
 **** Fit      -0.000372
 **** Fit       0.001451
 **** Fit      -0.020763
 **** Fit      -0.014791
 **** Fit      -0.010178
 **** Fit      -0.006567
 **** Fit      -0.003655
 **** Fit      -0.001179
 **** Fit       0.001107
 **** Fit      -0.020534
 **** Fit      -0.014084
 **** Fit      -0.009171
 **** Fit      -0.005328
 **** Fit      -0.002144
 **** Fit      -0.016253
 **** Fit      -0.010152
 **** Fit      -0.005395
 **** Fit      -0.014676
 **** Fit      -0.007827
 **** Fit       0.018892
 **** Fit       0.020540
 **** Fit       0.019142
 **** Fit       0.021813
 **** Fit       0.020748
 **** Fit       0.019638
 **** Fit       0.021891
 **** Fit       0.021276
 **** Fit       0.020515
 **** Fit       0.021099
 **** Fit       0.021289
 **** Fit       0.021141
 **** Fit       0.020769
 **** Fit       0.020253
 **** Fit       0.018728
 **** Fit       0.019706
 **** Fit       0.020202
 **** Fit       0.020316
 **** Fit       0.020176
 **** Fit       0.019925
 **** Fit       0.014287
 **** Fit       0.016482
 **** Fit       0.017912
 **** Fit       0.018725
 **** Fit       0.019070
 **** Fit       0.019118
 **** Fit      -0.001999
 **** Fit       0.005952
 **** Fit       0.010959
 **** Fit       0.014080
 **** Fit       0.015948
 **** Fit       0.016921
 **** Fit       0.017274
 **** Fit       0.001117
 **** Fit       0.008007
 **** Fit       0.011966
 **** Fit       0.013860
 **** Fit      -0.003158
 **** Fit       0.005221
 **** Fit       0.009443
 **** Fit       0.006994
 **** Fit       0.007243
 **** Fit       0.007105
 **** Fit       0.007086
 **** Fit       0.007666
 **** Fit       0.008147
 **** Fit       0.008417
 **** Fit       0.008358
 **** Fit       0.007818
 **** Fit       0.006634
 **** Fit       0.007726
 **** Fit       0.008366
 **** Fit       0.008949
 **** Fit       0.009393
 **** Fit       0.009618
 **** Fit       0.009503
 **** Fit       0.008849
 **** Fit       0.007320
 **** Fit       0.007653
 **** Fit       0.008293
 **** Fit       0.008969
 **** Fit       0.009613
 **** Fit       0.010172
 **** Fit       0.010594
 **** Fit       0.010812
 **** Fit       0.010706
 **** Fit       0.010043
 **** Fit       0.007787
 **** Fit       0.008444
 **** Fit       0.009167
 **** Fit       0.009894
 **** Fit       0.010581
 **** Fit       0.011193
 **** Fit       0.011689
 **** Fit       0.012011
 **** Fit       0.012047
 **** Fit       0.011546
 **** Fit       0.008512
 **** Fit       0.009244
 **** Fit       0.010008
 **** Fit       0.010767
 **** Fit       0.011494
 **** Fit       0.012167
 **** Fit       0.012764
 **** Fit       0.013246
 **** Fit       0.013529
 **** Fit       0.013409
 **** Fit       0.008693
 **** Fit       0.009438
 **** Fit       0.010229
 **** Fit       0.011035
 **** Fit       0.011838
 **** Fit       0.012625
 **** Fit       0.013393
 **** Fit       0.014136
 **** Fit       0.014841
 **** Fit       0.015452
 **** Fit       0.009179
 **** Fit       0.009985
 **** Fit       0.010843
 **** Fit       0.011731
 **** Fit       0.012640
 **** Fit       0.013575
 **** Fit       0.014557
 **** Fit       0.015624
 **** Fit       0.016834
 **** Fit       0.018260
 **** Fit       0.009075
 **** Fit       0.009876
 **** Fit       0.010772
 **** Fit       0.011736
 **** Fit       0.012759
 **** Fit       0.013859
 **** Fit       0.015082
 **** Fit       0.016521
 **** Fit       0.018346
 **** Fit       0.009766
 **** Fit       0.010643
 **** Fit       0.011637
 **** Fit       0.012738
 **** Fit       0.013966
 **** Fit       0.015392
 **** Fit       0.017157
 **** Fit       0.019534
 **** Fit       0.011027
 **** Fit       0.012152
 **** Fit       0.013471
 **** Fit       0.015050
 **** Fit       0.017056
 **** Fit       0.019840
 **** Fit       0.011502
 **** Fit       0.012776
 **** Fit       0.014383
 **** Fit       0.016467
 **** Fit       0.019371
 **** Fit       0.014153
 **** Fit       0.016472
 **** Fit       0.019809
 **** Fit      -0.005410
 **** Fit      -0.005881
 **** Fit      -0.002782
 **** Fit      -0.002229
 **** Fit      -0.004560
 **** Fit      -0.008849
 **** Fit      -0.009584
 **** Fit      -0.006068
 **** Fit      -0.002779
 **** Fit      -0.000755
 **** Fit       0.000188
 **** Fit       0.000197
 **** Fit      -0.000801
 **** Fit      -0.003235
 **** Fit      -0.007706
 **** Fit      -0.015024
 **** Fit      -0.010525
 **** Fit      -0.006057
 **** Fit      -0.002868
 **** Fit      -0.000649
 **** Fit       0.000805
 **** Fit       0.001667
 **** Fit       0.002066
 **** Fit       0.002070
 **** Fit       0.001653
 **** Fit      -0.015948
 **** Fit      -0.010410
 **** Fit      -0.005918
 **** Fit      -0.002801
 **** Fit      -0.000546
 **** Fit       0.001050
 **** Fit       0.002144
 **** Fit       0.002857
 **** Fit       0.003290
 **** Fit       0.003512
 **** Fit       0.003556
 **** Fit      -0.015891
 **** Fit      -0.010170
 **** Fit      -0.005707
 **** Fit      -0.002663
 **** Fit      -0.000419
 **** Fit       0.001225
 **** Fit       0.002411
 **** Fit       0.003253
 **** Fit       0.003841
 **** Fit       0.004259
 **** Fit       0.004574
 **** Fit      -0.015519
 **** Fit      -0.009845
 **** Fit      -0.005461
 **** Fit      -0.002581
 **** Fit      -0.000411
 **** Fit       0.001224
 **** Fit       0.002452
 **** Fit       0.003366
 **** Fit       0.004047
 **** Fit       0.004569
 **** Fit       0.005001
 **** Fit       0.005412
 **** Fit      -0.014582
 **** Fit      -0.009319
 **** Fit      -0.005199
 **** Fit      -0.002401
 **** Fit      -0.000276
 **** Fit       0.001347
 **** Fit       0.002584
 **** Fit       0.003527
 **** Fit       0.004254
 **** Fit       0.004834
 **** Fit       0.005343
 **** Fit       0.005860
 **** Fit      -0.014016
 **** Fit      -0.008929
 **** Fit      -0.004922
 **** Fit      -0.002281
 **** Fit      -0.000244
 **** Fit       0.001337
 **** Fit       0.002568
 **** Fit       0.003530
 **** Fit       0.004293
 **** Fit       0.004925
 **** Fit       0.005497
 **** Fit      -0.019556
 **** Fit      -0.013059
 **** Fit      -0.008393
 **** Fit      -0.004607
 **** Fit      -0.002119
 **** Fit      -0.000173
 **** Fit       0.001361
 **** Fit       0.002575
 **** Fit       0.003546
 **** Fit       0.004339
 **** Fit       0.005020
 **** Fit      -0.017893
 **** Fit      -0.012084
 **** Fit      -0.007828
 **** Fit      -0.004200
 **** Fit      -0.001805
 **** Fit       0.000083
 **** Fit       0.001583
 **** Fit       0.002785
 **** Fit       0.003765
 **** Fit       0.004594
 **** Fit      -0.011279
 **** Fit      -0.007271
 **** Fit      -0.001306
 **** Fit       0.000521
 **** Fit       0.001986
 **** Fit      -0.003552
 **** Fit      -0.001389
 **** Fit       0.000416
 **** Fit      -0.009245
 **** Fit      -0.006143
 **** Fit      -0.002850
 **** Fit      -0.000829
 **** Fit       0.000859
 **** Fit       0.002272
 **** Fit       0.003469
 **** Fit       0.004504
 **** Fit      -0.015934
 **** Fit      -0.011697
 **** Fit      -0.008189
 **** Fit      -0.005275
 **** Fit      -0.002262
 **** Fit      -0.000277
 **** Fit       0.001366
 **** Fit       0.002736
 **** Fit       0.003896
 **** Fit       0.004904
 **** Fit       0.005823
 **** Fit       0.006723
 **** Fit      -0.021941
 **** Fit      -0.015902
 **** Fit      -0.011276
 **** Fit      -0.007621
 **** Fit      -0.004672
 **** Fit      -0.001830
 **** Fit       0.000148
 **** Fit       0.001770
 **** Fit       0.003114
 **** Fit       0.004249
 **** Fit       0.005239
 **** Fit       0.006149
 **** Fit       0.007050
 **** Fit       0.008025
 **** Fit      -0.016280
 **** Fit      -0.011186
 **** Fit      -0.007308
 **** Fit      -0.004266
 **** Fit      -0.001557
 **** Fit       0.000546
 **** Fit       0.002234
 **** Fit       0.003611
 **** Fit       0.004765
 **** Fit       0.005778
 **** Fit       0.006734
 **** Fit       0.007724
 **** Fit       0.008848
 **** Fit       0.010214
 **** Fit      -0.018188
 **** Fit      -0.012135
 **** Fit      -0.007634
 **** Fit      -0.004215
 **** Fit      -0.001412
 **** Fit       0.000816
 **** Fit       0.002569
 **** Fit       0.003978
 **** Fit       0.005151
 **** Fit       0.006191
 **** Fit       0.007199
 **** Fit       0.008270
 **** Fit       0.009485
 **** Fit       0.010869
 **** Fit       0.012287
 **** Fit       0.013141
 **** Fit      -0.019095
 **** Fit      -0.012906
 **** Fit      -0.008020
 **** Fit      -0.004281
 **** Fit      -0.001330
 **** Fit       0.001079
 **** Fit       0.002925
 **** Fit       0.004369
 **** Fit       0.005552
 **** Fit       0.006590
 **** Fit       0.007544
 **** Fit       0.008342
 **** Fit       0.008579
 **** Fit       0.007230
 **** Fit       0.002742
 **** Fit      -0.005347
 **** Fit      -0.013277
 **** Fit      -0.008514
 **** Fit      -0.004481
 **** Fit      -0.001211
 **** Fit       0.001471
 **** Fit       0.003397
 **** Fit       0.004740
 **** Fit       0.005550
 **** Fit       0.005480
 **** Fit       0.003473
 **** Fit      -0.001541
 **** Fit      -0.007739
 **** Fit      -0.010444
 **** Fit      -0.008494
 **** Fit      -0.004715
 **** Fit      -0.000907
 **** Fit       0.001928
 **** Fit       0.002985
 **** Fit       0.001132
 **** Fit      -0.003300
 **** Fit      -0.004066
 **** Fit      -0.000215
 -----------------------------------------------------------------
 Leave Link  602 at Fri Dec  6 21:26:14 2019, MaxMem=   33554432 cpu:       5.3

 Test job not archived.
 1\1\GINC-MOSURA\FOpt\RHF\6-31G(d)\C20H36N4O4\MARIE\06-Dec-2019\0\\#HF/
 6-31G* SCF=tight Test Pop=MK iop(6/33=2) iop(6/42=6) opt\\remark line 
 goes here\\0,1\C,-7.7671557671,-1.3066375159,1.2813892589\N,-6.5860603
 977,-1.0705468893,0.4751340955\C,-6.1055006203,0.1822567042,0.33589304
 38\O,-6.5266195209,1.1088149327,0.976302053\C,-4.894673766,0.400052776
 2,-0.6046210359\C,-4.6067337854,-0.7673998912,-1.5562019261\C,-3.69575
 0226,0.6687919715,0.3363457963\C,-2.3463981854,0.9867997988,-0.3436117
 147\C,-1.3538260638,-0.1870765617,-0.3533343962\C,-0.0794399416,0.1575
 800719,-1.0792528557\C,1.1457136147,0.255951495,-0.5889882632\C,1.5966
 837253,0.0388545893,0.8348871748\C,2.3192977305,-1.3022977014,1.062209
 7142\C,3.6297566847,-1.556648552,0.2992631448\C,4.8872060061,-0.732026
 2095,0.6814167207\C,5.1051935827,-0.7366400424,2.1998426557\N,4.729074
 6923,0.6367623467,0.1964994245\C,5.7815315716,1.5088977293,0.1942534\C
 ,5.5931471356,2.7320287193,-0.6740443172\O,6.7821609668,1.3236031242,0
 .8294344\C,6.0347525625,-1.3787309065,-0.1325468027\O,6.0940899091,-1.
 1899527896,-1.3190114351\N,6.8726064759,-2.2192231633,0.5078457498\C,7
 .9968159101,-2.8039040838,-0.1954000251\N,-5.142556055,1.6189722229,-1
 .3709077304\C,-6.2850087758,1.7811220469,-2.096959255\C,-6.5675760435,
 3.1984024907,-2.5407162855\O,-7.019054637,0.8690828152,-2.3630642809\H
 ,-7.9161037,-2.3747625541,1.3709962362\H,-7.6237742762,-0.8877417867,2
 .2661794484\H,-8.6514557248,-0.8581809839,0.8422020761\H,-6.4017603997
 ,-1.7209730432,-0.2513519738\H,-4.3158823294,-1.6554177813,-1.00442131
 86\H,-5.4642590123,-0.9918124324,-2.173913161\H,-3.79025161,-0.5031979
 173,-2.2153618518\H,-3.5847563519,-0.1962585909,0.9841767873\H,-3.9838
 570864,1.488376304,0.9843133424\H,-1.875575744,1.8123675931,0.18169557
 53\H,-2.5073244522,1.33446859,-1.359465633\H,-1.1526971425,-0.49088559
 08,0.667569846\H,-1.8072514083,-1.0452877162,-0.8426003086\H,-0.206321
 7279,0.3529194255,-2.1335761586\H,1.9221275338,0.5177369016,-1.2911671
 653\H,0.7435290134,0.0686233917,1.5025659097\H,2.2416706669,0.85934126
 17,1.1308565985\H,1.6364321948,-2.0977503681,0.7754315461\H,2.48884447
 87,-1.4254557497,2.1269928556\H,3.4711448048,-1.4547331099,-0.76913682
 54\H,3.8892151167,-2.599682341,0.457112167\H,6.0577881076,-0.302148064
 ,2.4640774019\H,5.0432368166,-1.7458483491,2.5958720922\H,4.3343412381
 ,-0.1468383166,2.6776088996\H,4.1348985611,0.7209012687,-0.5976330111\
 H,5.8378302146,2.4716686159,-1.699569707\H,4.5724166208,3.0960346933,-
 0.6470576905\H,6.2687529647,3.5073558903,-0.3432785673\H,6.9428915348,
 -2.1487593383,1.4950495702\H,8.4592930967,-3.5424585015,0.4462301022\H
 ,7.6500620659,-3.288179208,-1.0960877581\H,8.7339243652,-2.0569702423,
 -0.4686401069\H,-4.783560285,2.4527301963,-0.9613789432\H,-5.660664834
 9,3.7328367578,-2.7993780909\H,-7.2351047145,3.1754897923,-3.389776903
 1\H,-7.0574753772,3.7266017748,-1.7281915893\\Version=EM64L-G09RevA.02
 \State=1-A\HF=-1295.6202797\RMSD=5.618e-09\RMSF=2.219e-06\Dipole=0.117
 8671,-0.6196184,0.4468136\Quadrupole=-26.1700183,21.3472995,4.8227188,
 -2.3943347,5.2233749,-11.3378111\PG=C01 [X(C20H36N4O4)]\\@


 GARBAGE IN, GARBAGE OUT
 Job cpu time:  0 days  2 hours 18 minutes 46.2 seconds.
 File lengths (MBytes):  RWF=    156 Int=      0 D2E=      0 Chk=     18 Scr=      1
 Normal termination of Gaussian 09 at Fri Dec  6 21:26:14 2019.
