 Entering Gaussian System, Link 0=g09
 Input=9.gau
 Output=9.log
 Initial command:
 /home/marie/Utilities//g09/l1.exe /tmp/g09/Gau-1968.inp -scrdir=/tmp/g09/
 Entering Link 1 = /home/marie/Utilities//g09/l1.exe PID=      1988.
  
 Copyright (c) 1988,1990,1992,1993,1995,1998,2003,2009, Gaussian, Inc.
                  All Rights Reserved.
  
 This is part of the Gaussian(R) 09 program.  It is based on
 the Gaussian(R) 03 system (copyright 2003, Gaussian, Inc.),
 the Gaussian(R) 98 system (copyright 1998, Gaussian, Inc.),
 the Gaussian(R) 94 system (copyright 1995, Gaussian, Inc.),
 the Gaussian 92(TM) system (copyright 1992, Gaussian, Inc.),
 the Gaussian 90(TM) system (copyright 1990, Gaussian, Inc.),
 the Gaussian 88(TM) system (copyright 1988, Gaussian, Inc.),
 the Gaussian 86(TM) system (copyright 1986, Carnegie Mellon
 University), and the Gaussian 82(TM) system (copyright 1983,
 Carnegie Mellon University). Gaussian is a federally registered
 trademark of Gaussian, Inc.
  
 This software contains proprietary and confidential information,
 including trade secrets, belonging to Gaussian, Inc.
  
 This software is provided under written license and may be
 used, copied, transmitted, or stored only in accord with that
 written license.
  
 The following legend is applicable only to US Government
 contracts under FAR:
  
                    RESTRICTED RIGHTS LEGEND
  
 Use, reproduction and disclosure by the US Government is
 subject to restrictions as set forth in subparagraphs (a)
 and (c) of the Commercial Computer Software - Restricted
 Rights clause in FAR 52.227-19.
  
 Gaussian, Inc.
 340 Quinnipiac St., Bldg. 40, Wallingford CT 06492
  
  
 ---------------------------------------------------------------
 Warning -- This program may not be used in any manner that
 competes with the business of Gaussian, Inc. or will provide
 assistance to any competitor of Gaussian, Inc.  The licensee
 of this program is prohibited from giving any competitor of
 Gaussian, Inc. access to this program.  By using this program,
 the user acknowledges that Gaussian, Inc. is engaged in the
 business of creating and licensing software in the field of
 computational chemistry and represents and warrants to the
 licensee that it is not a competitor of Gaussian, Inc. and that
 it will not use this program in any manner prohibited above.
 ---------------------------------------------------------------
  

 Cite this work as:
 Gaussian 09, Revision A.02,
 M. J. Frisch, G. W. Trucks, H. B. Schlegel, G. E. Scuseria, 
 M. A. Robb, J. R. Cheeseman, G. Scalmani, V. Barone, B. Mennucci, 
 G. A. Petersson, H. Nakatsuji, M. Caricato, X. Li, H. P. Hratchian, 
 A. F. Izmaylov, J. Bloino, G. Zheng, J. L. Sonnenberg, M. Hada, 
 M. Ehara, K. Toyota, R. Fukuda, J. Hasegawa, M. Ishida, T. Nakajima, 
 Y. Honda, O. Kitao, H. Nakai, T. Vreven, J. A. Montgomery, Jr., 
 J. E. Peralta, F. Ogliaro, M. Bearpark, J. J. Heyd, E. Brothers, 
 K. N. Kudin, V. N. Staroverov, R. Kobayashi, J. Normand, 
 K. Raghavachari, A. Rendell, J. C. Burant, S. S. Iyengar, J. Tomasi, 
 M. Cossi, N. Rega, J. M. Millam, M. Klene, J. E. Knox, J. B. Cross, 
 V. Bakken, C. Adamo, J. Jaramillo, R. Gomperts, R. E. Stratmann, 
 O. Yazyev, A. J. Austin, R. Cammi, C. Pomelli, J. W. Ochterski, 
 R. L. Martin, K. Morokuma, V. G. Zakrzewski, G. A. Voth, 
 P. Salvador, J. J. Dannenberg, S. Dapprich, A. D. Daniels, 
 O. Farkas, J. B. Foresman, J. V. Ortiz, J. Cioslowski, 
 and D. J. Fox, Gaussian, Inc., Wallingford CT, 2009.
 
 ******************************************
 Gaussian 09:  EM64L-G09RevA.02 11-Jun-2009
                 6-Dec-2019 
 ******************************************
 %chk=conf9
 ------------------------------------------------------------
 #HF/6-31G* SCF=tight Test Pop=MK iop(6/33=2) iop(6/42=6) opt
 ------------------------------------------------------------
 1/18=20,19=15,38=1/1,3;
 2/9=110,12=2,17=6,18=5,40=1/2;
 3/5=1,6=6,7=1,11=9,16=1,25=1,30=1,71=1/1,2,3;
 4//1;
 5/5=2,32=2,38=5/2;
 6/7=2,8=2,9=2,10=2,15=8,20=1,28=1,33=2,42=6/1,2;
 7//1,2,3,16;
 1/18=20,19=15/3(2);
 2/9=110/2;
 99//99;
 2/9=110/2;
 3/5=1,6=6,7=1,11=9,16=1,25=1,30=1,71=1/1,2,3;
 4/5=5,16=3/1;
 5/5=2,32=2,38=5/2;
 7//1,2,3,16;
 1/18=20,19=15/3(-5);
 2/9=110/2;
 6/7=2,8=2,9=2,10=2,15=8,19=2,20=1,28=1,33=2,42=6/1,2;
 99/9=1/99;
 ---------------------
 remark line goes here
 ---------------------
 Symbolic Z-matrix:
 Charge =  0 Multiplicity = 1
 C                    -5.126     2.692     2.002 
 N                    -4.597     1.435     1.532 
 C                    -5.018     0.913     0.323 
 O                    -5.721     1.559    -0.456 
 C                    -4.432    -0.483    -0.064 
 C                    -4.481    -1.475     1.116 
 C                    -2.937    -0.315    -0.462 
 C                    -2.662     0.655    -1.625 
 C                    -1.165     0.867    -1.877 
 C                    -0.478    -0.367    -2.392 
 C                     0.451    -1.107    -1.766 
 C                     0.991    -0.912    -0.378 
 C                     2.435    -0.402    -0.414 
 C                     2.987    -0.213     1.007 
 C                     4.466     0.263     1.098 
 C                     4.818     0.372     2.595 
 N                     4.608     1.558     0.393 
 C                     5.691     2.397     0.565 
 C                     5.758     3.503    -0.455 
 O                     6.537     2.283     1.444 
 C                     5.381    -0.764     0.358 
 O                     5.814    -0.546    -0.776 
 N                     5.569    -1.978     0.991 
 C                     6.442    -2.97      0.412 
 N                    -5.2      -0.969    -1.233 
 C                    -6.465    -1.512    -1.131 
 C                    -7.153    -1.678    -2.462 
 O                    -7.011    -1.834    -0.083 
 H                    -4.519     3.031     2.844 
 H                    -5.101     3.436     1.202 
 H                    -6.159     2.539     2.327 
 H                    -4.231     0.802     2.229 
 H                    -3.691    -1.272     1.849 
 H                    -5.426    -1.416     1.665 
 H                    -4.345    -2.507     0.772 
 H                    -2.367     0.032     0.411 
 H                    -2.536    -1.302    -0.726 
 H                    -3.104     1.633    -1.405 
 H                    -3.134     0.291    -2.544 
 H                    -1.047     1.651    -2.635 
 H                    -0.687     1.255    -0.972 
 H                    -0.761    -0.665    -3.401 
 H                     0.86     -1.962    -2.304 
 H                     0.368    -0.227     0.205 
 H                     0.951    -1.877     0.142 
 H                     2.463     0.548    -0.96 
 H                     3.056    -1.115    -0.969 
 H                     2.349     0.514     1.529 
 H                     2.879    -1.165     1.543 
 H                     4.436    -0.483     3.165 
 H                     5.9       0.388     2.763 
 H                     4.387     1.276     3.039 
 H                     4.309     1.518    -0.575 
 H                     6.071     4.428     0.038 
 H                     6.481     3.234    -1.229 
 H                     4.782     3.679    -0.918 
 H                     5.412    -2.032     1.988 
 H                     7.478    -2.644     0.537 
 H                     6.223    -3.09     -0.653 
 H                     6.285    -3.917     0.933 
 H                    -5.101    -0.378    -2.05 
 H                    -7.854    -0.852    -2.607 
 H                    -6.433    -1.689    -3.285 
 H                    -7.694    -2.628    -2.47 
 

 GradGradGradGradGradGradGradGradGradGradGradGradGradGradGradGradGradGrad
 Berny optimization.
 Initialization pass.
                           ----------------------------
                           !    Initial Parameters    !
                           ! (Angstroms and Degrees)  !
 --------------------------                            --------------------------
 ! Name  Definition              Value          Derivative Info.                !
 --------------------------------------------------------------------------------
 ! R1    R(1,2)                  1.4425         estimate D2E/DX2                !
 ! R2    R(1,29)                 1.0919         estimate D2E/DX2                !
 ! R3    R(1,30)                 1.0928         estimate D2E/DX2                !
 ! R4    R(1,31)                 1.0937         estimate D2E/DX2                !
 ! R5    R(2,3)                  1.3825         estimate D2E/DX2                !
 ! R6    R(2,32)                 1.0102         estimate D2E/DX2                !
 ! R7    R(3,4)                  1.2322         estimate D2E/DX2                !
 ! R8    R(3,5)                  1.5627         estimate D2E/DX2                !
 ! R9    R(5,6)                  1.5424         estimate D2E/DX2                !
 ! R10   R(5,7)                  1.5562         estimate D2E/DX2                !
 ! R11   R(5,25)                 1.4807         estimate D2E/DX2                !
 ! R12   R(6,33)                 1.0966         estimate D2E/DX2                !
 ! R13   R(6,34)                 1.0945         estimate D2E/DX2                !
 ! R14   R(6,35)                 1.0963         estimate D2E/DX2                !
 ! R15   R(7,8)                  1.5392         estimate D2E/DX2                !
 ! R16   R(7,36)                 1.0988         estimate D2E/DX2                !
 ! R17   R(7,37)                 1.0976         estimate D2E/DX2                !
 ! R18   R(8,9)                  1.5328         estimate D2E/DX2                !
 ! R19   R(8,38)                 1.0956         estimate D2E/DX2                !
 ! R20   R(8,39)                 1.0954         estimate D2E/DX2                !
 ! R21   R(9,10)                 1.5033         estimate D2E/DX2                !
 ! R22   R(9,40)                 1.0969         estimate D2E/DX2                !
 ! R23   R(9,41)                 1.0946         estimate D2E/DX2                !
 ! R24   R(10,11)                1.3426         estimate D2E/DX2                !
 ! R25   R(10,42)                1.0895         estimate D2E/DX2                !
 ! R26   R(11,12)                1.5021         estimate D2E/DX2                !
 ! R27   R(11,43)                1.0898         estimate D2E/DX2                !
 ! R28   R(12,13)                1.5318         estimate D2E/DX2                !
 ! R29   R(12,44)                1.0942         estimate D2E/DX2                !
 ! R30   R(12,45)                1.0969         estimate D2E/DX2                !
 ! R31   R(13,14)                1.5361         estimate D2E/DX2                !
 ! R32   R(13,46)                1.0961         estimate D2E/DX2                !
 ! R33   R(13,47)                1.0964         estimate D2E/DX2                !
 ! R34   R(14,15)                1.5564         estimate D2E/DX2                !
 ! R35   R(14,48)                1.0991         estimate D2E/DX2                !
 ! R36   R(14,49)                1.0978         estimate D2E/DX2                !
 ! R37   R(15,16)                1.5417         estimate D2E/DX2                !
 ! R38   R(15,17)                1.4813         estimate D2E/DX2                !
 ! R39   R(15,21)                1.5619         estimate D2E/DX2                !
 ! R40   R(16,50)                1.0963         estimate D2E/DX2                !
 ! R41   R(16,51)                1.0951         estimate D2E/DX2                !
 ! R42   R(16,52)                1.0955         estimate D2E/DX2                !
 ! R43   R(17,18)                1.3807         estimate D2E/DX2                !
 ! R44   R(17,53)                1.0139         estimate D2E/DX2                !
 ! R45   R(18,19)                1.506          estimate D2E/DX2                !
 ! R46   R(18,20)                1.2253         estimate D2E/DX2                !
 ! R47   R(19,54)                1.0939         estimate D2E/DX2                !
 ! R48   R(19,55)                1.0928         estimate D2E/DX2                !
 ! R49   R(19,56)                1.0945         estimate D2E/DX2                !
 ! R50   R(21,22)                1.2333         estimate D2E/DX2                !
 ! R51   R(21,23)                1.382          estimate D2E/DX2                !
 ! R52   R(23,24)                1.4427         estimate D2E/DX2                !
 ! R53   R(23,57)                1.0107         estimate D2E/DX2                !
 ! R54   R(24,58)                1.0933         estimate D2E/DX2                !
 ! R55   R(24,59)                1.0939         estimate D2E/DX2                !
 ! R56   R(24,60)                1.0922         estimate D2E/DX2                !
 ! R57   R(25,26)                1.3804         estimate D2E/DX2                !
 ! R58   R(25,61)                1.0132         estimate D2E/DX2                !
 ! R59   R(26,27)                1.5075         estimate D2E/DX2                !
 ! R60   R(26,28)                1.2248         estimate D2E/DX2                !
 ! R61   R(27,62)                1.093          estimate D2E/DX2                !
 ! R62   R(27,63)                1.0935         estimate D2E/DX2                !
 ! R63   R(27,64)                1.0933         estimate D2E/DX2                !
 ! A1    A(2,1,29)             108.5371         estimate D2E/DX2                !
 ! A2    A(2,1,30)             110.2651         estimate D2E/DX2                !
 ! A3    A(2,1,31)             108.7415         estimate D2E/DX2                !
 ! A4    A(29,1,30)            109.9027         estimate D2E/DX2                !
 ! A5    A(29,1,31)            109.8366         estimate D2E/DX2                !
 ! A6    A(30,1,31)            109.5361         estimate D2E/DX2                !
 ! A7    A(1,2,3)              120.1502         estimate D2E/DX2                !
 ! A8    A(1,2,32)             117.0072         estimate D2E/DX2                !
 ! A9    A(3,2,32)             118.4968         estimate D2E/DX2                !
 ! A10   A(2,3,4)              121.9127         estimate D2E/DX2                !
 ! A11   A(2,3,5)              116.0827         estimate D2E/DX2                !
 ! A12   A(4,3,5)              121.7164         estimate D2E/DX2                !
 ! A13   A(3,5,6)              111.9122         estimate D2E/DX2                !
 ! A14   A(3,5,7)              109.096          estimate D2E/DX2                !
 ! A15   A(3,5,25)             107.111          estimate D2E/DX2                !
 ! A16   A(6,5,7)              107.1951         estimate D2E/DX2                !
 ! A17   A(6,5,25)             112.1121         estimate D2E/DX2                !
 ! A18   A(7,5,25)             109.3778         estimate D2E/DX2                !
 ! A19   A(5,6,33)             111.6805         estimate D2E/DX2                !
 ! A20   A(5,6,34)             112.1181         estimate D2E/DX2                !
 ! A21   A(5,6,35)             111.189          estimate D2E/DX2                !
 ! A22   A(33,6,34)            106.0657         estimate D2E/DX2                !
 ! A23   A(33,6,35)            107.1351         estimate D2E/DX2                !
 ! A24   A(34,6,35)            108.376          estimate D2E/DX2                !
 ! A25   A(5,7,8)              115.6534         estimate D2E/DX2                !
 ! A26   A(5,7,36)             109.2227         estimate D2E/DX2                !
 ! A27   A(5,7,37)             108.3866         estimate D2E/DX2                !
 ! A28   A(8,7,36)             107.9756         estimate D2E/DX2                !
 ! A29   A(8,7,37)             108.6445         estimate D2E/DX2                !
 ! A30   A(36,7,37)            106.5919         estimate D2E/DX2                !
 ! A31   A(7,8,9)              112.6984         estimate D2E/DX2                !
 ! A32   A(7,8,38)             109.8017         estimate D2E/DX2                !
 ! A33   A(7,8,39)             110.3359         estimate D2E/DX2                !
 ! A34   A(9,8,38)             107.6723         estimate D2E/DX2                !
 ! A35   A(9,8,39)             109.2001         estimate D2E/DX2                !
 ! A36   A(38,8,39)            106.9346         estimate D2E/DX2                !
 ! A37   A(8,9,10)             112.899          estimate D2E/DX2                !
 ! A38   A(8,9,40)             108.514          estimate D2E/DX2                !
 ! A39   A(8,9,41)             109.8527         estimate D2E/DX2                !
 ! A40   A(10,9,40)            107.5062         estimate D2E/DX2                !
 ! A41   A(10,9,41)            112.003          estimate D2E/DX2                !
 ! A42   A(40,9,41)            105.7254         estimate D2E/DX2                !
 ! A43   A(9,10,11)            127.5115         estimate D2E/DX2                !
 ! A44   A(9,10,42)            115.0296         estimate D2E/DX2                !
 ! A45   A(11,10,42)           117.4388         estimate D2E/DX2                !
 ! A46   A(10,11,12)           127.45           estimate D2E/DX2                !
 ! A47   A(10,11,43)           117.5108         estimate D2E/DX2                !
 ! A48   A(12,11,43)           115.0303         estimate D2E/DX2                !
 ! A49   A(11,12,13)           111.1246         estimate D2E/DX2                !
 ! A50   A(11,12,44)           111.6501         estimate D2E/DX2                !
 ! A51   A(11,12,45)           108.1039         estimate D2E/DX2                !
 ! A52   A(13,12,44)           109.9267         estimate D2E/DX2                !
 ! A53   A(13,12,45)           109.78           estimate D2E/DX2                !
 ! A54   A(44,12,45)           106.1051         estimate D2E/DX2                !
 ! A55   A(12,13,14)           110.9752         estimate D2E/DX2                !
 ! A56   A(12,13,46)           108.9261         estimate D2E/DX2                !
 ! A57   A(12,13,47)           109.2272         estimate D2E/DX2                !
 ! A58   A(14,13,46)           110.181          estimate D2E/DX2                !
 ! A59   A(14,13,47)           110.1667         estimate D2E/DX2                !
 ! A60   A(46,13,47)           107.2786         estimate D2E/DX2                !
 ! A61   A(13,14,15)           115.6708         estimate D2E/DX2                !
 ! A62   A(13,14,48)           108.1875         estimate D2E/DX2                !
 ! A63   A(13,14,49)           108.035          estimate D2E/DX2                !
 ! A64   A(15,14,48)           108.7564         estimate D2E/DX2                !
 ! A65   A(15,14,49)           109.2777         estimate D2E/DX2                !
 ! A66   A(48,14,49)           106.5346         estimate D2E/DX2                !
 ! A67   A(14,15,16)           107.1796         estimate D2E/DX2                !
 ! A68   A(14,15,17)           109.308          estimate D2E/DX2                !
 ! A69   A(14,15,21)           109.1413         estimate D2E/DX2                !
 ! A70   A(16,15,17)           112.2374         estimate D2E/DX2                !
 ! A71   A(16,15,21)           111.8872         estimate D2E/DX2                !
 ! A72   A(17,15,21)           107.049          estimate D2E/DX2                !
 ! A73   A(15,16,50)           111.7259         estimate D2E/DX2                !
 ! A74   A(15,16,51)           112.061          estimate D2E/DX2                !
 ! A75   A(15,16,52)           111.2269         estimate D2E/DX2                !
 ! A76   A(50,16,51)           106.0166         estimate D2E/DX2                !
 ! A77   A(50,16,52)           107.2029         estimate D2E/DX2                !
 ! A78   A(51,16,52)           108.3303         estimate D2E/DX2                !
 ! A79   A(15,17,18)           123.1708         estimate D2E/DX2                !
 ! A80   A(15,17,53)           113.0556         estimate D2E/DX2                !
 ! A81   A(18,17,53)           111.9756         estimate D2E/DX2                !
 ! A82   A(17,18,19)           113.3767         estimate D2E/DX2                !
 ! A83   A(17,18,20)           125.0573         estimate D2E/DX2                !
 ! A84   A(19,18,20)           121.5655         estimate D2E/DX2                !
 ! A85   A(18,19,54)           109.1766         estimate D2E/DX2                !
 ! A86   A(18,19,55)           109.1695         estimate D2E/DX2                !
 ! A87   A(18,19,56)           111.4031         estimate D2E/DX2                !
 ! A88   A(54,19,55)           109.7582         estimate D2E/DX2                !
 ! A89   A(54,19,56)           108.0486         estimate D2E/DX2                !
 ! A90   A(55,19,56)           109.2655         estimate D2E/DX2                !
 ! A91   A(15,21,22)           121.6746         estimate D2E/DX2                !
 ! A92   A(15,21,23)           116.1227         estimate D2E/DX2                !
 ! A93   A(22,21,23)           121.917          estimate D2E/DX2                !
 ! A94   A(21,23,24)           120.1665         estimate D2E/DX2                !
 ! A95   A(21,23,57)           118.5303         estimate D2E/DX2                !
 ! A96   A(24,23,57)           116.9448         estimate D2E/DX2                !
 ! A97   A(23,24,58)           108.8141         estimate D2E/DX2                !
 ! A98   A(23,24,59)           110.1826         estimate D2E/DX2                !
 ! A99   A(23,24,60)           108.5275         estimate D2E/DX2                !
 ! A100  A(58,24,59)           109.4966         estimate D2E/DX2                !
 ! A101  A(58,24,60)           109.8908         estimate D2E/DX2                !
 ! A102  A(59,24,60)           109.909          estimate D2E/DX2                !
 ! A103  A(5,25,26)            123.0983         estimate D2E/DX2                !
 ! A104  A(5,25,61)            113.2329         estimate D2E/DX2                !
 ! A105  A(26,25,61)           112.2456         estimate D2E/DX2                !
 ! A106  A(25,26,27)           113.3482         estimate D2E/DX2                !
 ! A107  A(25,26,28)           125.1116         estimate D2E/DX2                !
 ! A108  A(27,26,28)           121.5395         estimate D2E/DX2                !
 ! A109  A(26,27,62)           109.0636         estimate D2E/DX2                !
 ! A110  A(26,27,63)           111.4143         estimate D2E/DX2                !
 ! A111  A(26,27,64)           109.147          estimate D2E/DX2                !
 ! A112  A(62,27,63)           109.2703         estimate D2E/DX2                !
 ! A113  A(62,27,64)           109.7753         estimate D2E/DX2                !
 ! A114  A(63,27,64)           108.1533         estimate D2E/DX2                !
 ! D1    D(29,1,2,3)          -167.7326         estimate D2E/DX2                !
 ! D2    D(29,1,2,32)           36.0134         estimate D2E/DX2                !
 ! D3    D(30,1,2,3)           -47.2984         estimate D2E/DX2                !
 ! D4    D(30,1,2,32)          156.4476         estimate D2E/DX2                !
 ! D5    D(31,1,2,3)            72.814          estimate D2E/DX2                !
 ! D6    D(31,1,2,32)          -83.4401         estimate D2E/DX2                !
 ! D7    D(1,2,3,4)              8.6875         estimate D2E/DX2                !
 ! D8    D(1,2,3,5)           -177.3808         estimate D2E/DX2                !
 ! D9    D(32,2,3,4)           164.5939         estimate D2E/DX2                !
 ! D10   D(32,2,3,5)           -21.4745         estimate D2E/DX2                !
 ! D11   D(2,3,5,6)             45.832          estimate D2E/DX2                !
 ! D12   D(2,3,5,7)            -72.6224         estimate D2E/DX2                !
 ! D13   D(2,3,5,25)           169.0861         estimate D2E/DX2                !
 ! D14   D(4,3,5,6)           -140.2233         estimate D2E/DX2                !
 ! D15   D(4,3,5,7)            101.3222         estimate D2E/DX2                !
 ! D16   D(4,3,5,25)           -16.9692         estimate D2E/DX2                !
 ! D17   D(3,5,6,33)           -76.6801         estimate D2E/DX2                !
 ! D18   D(3,5,6,34)            42.2041         estimate D2E/DX2                !
 ! D19   D(3,5,6,35)           163.7056         estimate D2E/DX2                !
 ! D20   D(7,5,6,33)            42.8977         estimate D2E/DX2                !
 ! D21   D(7,5,6,34)           161.7818         estimate D2E/DX2                !
 ! D22   D(7,5,6,35)           -76.7166         estimate D2E/DX2                !
 ! D23   D(25,5,6,33)          162.9391         estimate D2E/DX2                !
 ! D24   D(25,5,6,34)          -78.1768         estimate D2E/DX2                !
 ! D25   D(25,5,6,35)           43.3248         estimate D2E/DX2                !
 ! D26   D(3,5,7,8)            -58.0718         estimate D2E/DX2                !
 ! D27   D(3,5,7,36)            63.936          estimate D2E/DX2                !
 ! D28   D(3,5,7,37)           179.6947         estimate D2E/DX2                !
 ! D29   D(6,5,7,8)           -179.4396         estimate D2E/DX2                !
 ! D30   D(6,5,7,36)           -57.4318         estimate D2E/DX2                !
 ! D31   D(6,5,7,37)            58.3269         estimate D2E/DX2                !
 ! D32   D(25,5,7,8)            58.7888         estimate D2E/DX2                !
 ! D33   D(25,5,7,36)         -179.2035         estimate D2E/DX2                !
 ! D34   D(25,5,7,37)          -63.4448         estimate D2E/DX2                !
 ! D35   D(3,5,25,26)          -77.6527         estimate D2E/DX2                !
 ! D36   D(3,5,25,61)           62.8462         estimate D2E/DX2                !
 ! D37   D(6,5,25,26)           45.4779         estimate D2E/DX2                !
 ! D38   D(6,5,25,61)         -174.0232         estimate D2E/DX2                !
 ! D39   D(7,5,25,26)          164.2392         estimate D2E/DX2                !
 ! D40   D(7,5,25,61)          -55.2619         estimate D2E/DX2                !
 ! D41   D(5,7,8,9)            174.7938         estimate D2E/DX2                !
 ! D42   D(5,7,8,38)            54.7713         estimate D2E/DX2                !
 ! D43   D(5,7,8,39)           -62.8489         estimate D2E/DX2                !
 ! D44   D(36,7,8,9)            52.1232         estimate D2E/DX2                !
 ! D45   D(36,7,8,38)          -67.8993         estimate D2E/DX2                !
 ! D46   D(36,7,8,39)          174.4805         estimate D2E/DX2                !
 ! D47   D(37,7,8,9)           -63.11           estimate D2E/DX2                !
 ! D48   D(37,7,8,38)          176.8675         estimate D2E/DX2                !
 ! D49   D(37,7,8,39)           59.2473         estimate D2E/DX2                !
 ! D50   D(7,8,9,10)            67.3733         estimate D2E/DX2                !
 ! D51   D(7,8,9,40)          -173.561          estimate D2E/DX2                !
 ! D52   D(7,8,9,41)           -58.4238         estimate D2E/DX2                !
 ! D53   D(38,8,9,10)         -171.3843         estimate D2E/DX2                !
 ! D54   D(38,8,9,40)          -52.3186         estimate D2E/DX2                !
 ! D55   D(38,8,9,41)           62.8186         estimate D2E/DX2                !
 ! D56   D(39,8,9,10)          -55.6204         estimate D2E/DX2                !
 ! D57   D(39,8,9,40)           63.4453         estimate D2E/DX2                !
 ! D58   D(39,8,9,41)          178.5825         estimate D2E/DX2                !
 ! D59   D(8,9,10,11)         -113.0386         estimate D2E/DX2                !
 ! D60   D(8,9,10,42)           68.6493         estimate D2E/DX2                !
 ! D61   D(40,9,10,11)         127.3132         estimate D2E/DX2                !
 ! D62   D(40,9,10,42)         -50.9989         estimate D2E/DX2                !
 ! D63   D(41,9,10,11)          11.5934         estimate D2E/DX2                !
 ! D64   D(41,9,10,42)        -166.7188         estimate D2E/DX2                !
 ! D65   D(9,10,11,12)           2.5657         estimate D2E/DX2                !
 ! D66   D(9,10,11,43)        -178.5819         estimate D2E/DX2                !
 ! D67   D(42,10,11,12)       -179.1576         estimate D2E/DX2                !
 ! D68   D(42,10,11,43)         -0.3051         estimate D2E/DX2                !
 ! D69   D(10,11,12,13)       -108.8012         estimate D2E/DX2                !
 ! D70   D(10,11,12,44)         14.3236         estimate D2E/DX2                !
 ! D71   D(10,11,12,45)        130.6683         estimate D2E/DX2                !
 ! D72   D(43,11,12,13)         72.3221         estimate D2E/DX2                !
 ! D73   D(43,11,12,44)       -164.5531         estimate D2E/DX2                !
 ! D74   D(43,11,12,45)        -48.2084         estimate D2E/DX2                !
 ! D75   D(11,12,13,14)       -179.6105         estimate D2E/DX2                !
 ! D76   D(11,12,13,46)         58.9205         estimate D2E/DX2                !
 ! D77   D(11,12,13,47)        -57.9599         estimate D2E/DX2                !
 ! D78   D(44,12,13,14)         56.2804         estimate D2E/DX2                !
 ! D79   D(44,12,13,46)        -65.1885         estimate D2E/DX2                !
 ! D80   D(44,12,13,47)        177.931          estimate D2E/DX2                !
 ! D81   D(45,12,13,14)        -60.0751         estimate D2E/DX2                !
 ! D82   D(45,12,13,46)        178.4559         estimate D2E/DX2                !
 ! D83   D(45,12,13,47)         61.5755         estimate D2E/DX2                !
 ! D84   D(12,13,14,15)        178.2346         estimate D2E/DX2                !
 ! D85   D(12,13,14,48)        -59.5279         estimate D2E/DX2                !
 ! D86   D(12,13,14,49)         55.4336         estimate D2E/DX2                !
 ! D87   D(46,13,14,15)        -61.0354         estimate D2E/DX2                !
 ! D88   D(46,13,14,48)         61.2021         estimate D2E/DX2                !
 ! D89   D(46,13,14,49)        176.1637         estimate D2E/DX2                !
 ! D90   D(47,13,14,15)         57.1355         estimate D2E/DX2                !
 ! D91   D(47,13,14,48)        179.373          estimate D2E/DX2                !
 ! D92   D(47,13,14,49)        -65.6654         estimate D2E/DX2                !
 ! D93   D(13,14,15,16)       -179.3943         estimate D2E/DX2                !
 ! D94   D(13,14,15,17)         58.7325         estimate D2E/DX2                !
 ! D95   D(13,14,15,21)        -58.0399         estimate D2E/DX2                !
 ! D96   D(48,14,15,16)         58.6713         estimate D2E/DX2                !
 ! D97   D(48,14,15,17)        -63.2018         estimate D2E/DX2                !
 ! D98   D(48,14,15,21)       -179.9742         estimate D2E/DX2                !
 ! D99   D(49,14,15,16)        -57.2527         estimate D2E/DX2                !
 ! D100  D(49,14,15,17)       -179.1259         estimate D2E/DX2                !
 ! D101  D(49,14,15,21)         64.1017         estimate D2E/DX2                !
 ! D102  D(14,15,16,50)         43.0476         estimate D2E/DX2                !
 ! D103  D(14,15,16,51)        161.8614         estimate D2E/DX2                !
 ! D104  D(14,15,16,52)        -76.709          estimate D2E/DX2                !
 ! D105  D(17,15,16,50)        163.0673         estimate D2E/DX2                !
 ! D106  D(17,15,16,51)        -78.1188         estimate D2E/DX2                !
 ! D107  D(17,15,16,52)         43.3107         estimate D2E/DX2                !
 ! D108  D(21,15,16,50)        -76.5611         estimate D2E/DX2                !
 ! D109  D(21,15,16,51)         42.2527         estimate D2E/DX2                !
 ! D110  D(21,15,16,52)        163.6822         estimate D2E/DX2                !
 ! D111  D(14,15,17,18)        163.5421         estimate D2E/DX2                !
 ! D112  D(14,15,17,53)        -56.6324         estimate D2E/DX2                !
 ! D113  D(16,15,17,18)         44.7677         estimate D2E/DX2                !
 ! D114  D(16,15,17,53)       -175.4068         estimate D2E/DX2                !
 ! D115  D(21,15,17,18)        -78.3683         estimate D2E/DX2                !
 ! D116  D(21,15,17,53)         61.4572         estimate D2E/DX2                !
 ! D117  D(14,15,21,22)        101.6072         estimate D2E/DX2                !
 ! D118  D(14,15,21,23)        -72.3639         estimate D2E/DX2                !
 ! D119  D(16,15,21,22)       -139.9436         estimate D2E/DX2                !
 ! D120  D(16,15,21,23)         46.0853         estimate D2E/DX2                !
 ! D121  D(17,15,21,22)        -16.5911         estimate D2E/DX2                !
 ! D122  D(17,15,21,23)        169.4378         estimate D2E/DX2                !
 ! D123  D(15,17,18,19)        167.9986         estimate D2E/DX2                !
 ! D124  D(15,17,18,20)        -11.7405         estimate D2E/DX2                !
 ! D125  D(53,17,18,19)         27.7976         estimate D2E/DX2                !
 ! D126  D(53,17,18,20)       -151.9415         estimate D2E/DX2                !
 ! D127  D(17,18,19,54)        139.9917         estimate D2E/DX2                !
 ! D128  D(17,18,19,55)       -100.0199         estimate D2E/DX2                !
 ! D129  D(17,18,19,56)         20.7405         estimate D2E/DX2                !
 ! D130  D(20,18,19,54)        -40.259          estimate D2E/DX2                !
 ! D131  D(20,18,19,55)         79.7294         estimate D2E/DX2                !
 ! D132  D(20,18,19,56)       -159.5101         estimate D2E/DX2                !
 ! D133  D(15,21,23,24)       -177.4426         estimate D2E/DX2                !
 ! D134  D(15,21,23,57)        -21.5844         estimate D2E/DX2                !
 ! D135  D(22,21,23,24)          8.6021         estimate D2E/DX2                !
 ! D136  D(22,21,23,57)        164.4604         estimate D2E/DX2                !
 ! D137  D(21,23,24,58)         72.7469         estimate D2E/DX2                !
 ! D138  D(21,23,24,59)        -47.3121         estimate D2E/DX2                !
 ! D139  D(21,23,24,60)       -167.6981         estimate D2E/DX2                !
 ! D140  D(57,23,24,58)        -83.4818         estimate D2E/DX2                !
 ! D141  D(57,23,24,59)        156.4592         estimate D2E/DX2                !
 ! D142  D(57,23,24,60)         36.0732         estimate D2E/DX2                !
 ! D143  D(5,25,26,27)         168.4238         estimate D2E/DX2                !
 ! D144  D(5,25,26,28)         -11.2604         estimate D2E/DX2                !
 ! D145  D(61,25,26,27)         27.5859         estimate D2E/DX2                !
 ! D146  D(61,25,26,28)       -152.0983         estimate D2E/DX2                !
 ! D147  D(25,26,27,62)       -100.0355         estimate D2E/DX2                !
 ! D148  D(25,26,27,63)         20.668          estimate D2E/DX2                !
 ! D149  D(25,26,27,64)        140.0367         estimate D2E/DX2                !
 ! D150  D(28,26,27,62)         79.6614         estimate D2E/DX2                !
 ! D151  D(28,26,27,63)       -159.6351         estimate D2E/DX2                !
 ! D152  D(28,26,27,64)        -40.2664         estimate D2E/DX2                !
 --------------------------------------------------------------------------------
 Trust Radius=3.00D-01 FncErr=1.00D-07 GrdErr=1.00D-07
 Number of steps in this run= 339 maximum allowed number of steps= 384.
 GradGradGradGradGradGradGradGradGradGradGradGradGradGradGradGradGradGrad

 Stoichiometry    C20H36N4O4
 Framework group  C1[X(C20H36N4O4)]
 Deg. of freedom   186
 Full point group                 C1      NOp   1
 Largest Abelian subgroup         C1      NOp   1
 Largest concise Abelian subgroup C1      NOp   1
                         Standard orientation:                         
 ---------------------------------------------------------------------
 Center     Atomic      Atomic             Coordinates (Angstroms)
 Number     Number       Type             X           Y           Z
 ---------------------------------------------------------------------
      1          6           0        4.767320    3.615663   -1.252632
      2          7           0        4.346179    2.236027   -1.246725
      3          6           0        4.901071    1.344450   -0.347508
      4          8           0        5.639487    1.715707    0.566426
      5          6           0        4.422526   -0.138421   -0.466126
      6          6           0        4.412526   -0.624678   -1.929792
      7          6           0        2.963642   -0.246572    0.064547
      8          6           0        2.748398    0.207495    1.519397
      9          6           0        1.272021    0.193235    1.931181
     10          6           0        0.696706   -1.194036    1.997834
     11          6           0       -0.247877   -1.726260    1.205990
     12          6           0       -0.921317   -1.082272    0.027887
     13          6           0       -2.379421   -0.737093    0.346191
     14          6           0       -3.067513   -0.087595   -0.863911
     15          6           0       -4.570343    0.269557   -0.673537
     16          6           0       -5.062503    0.888449   -1.996996
     17          7           0       -4.711176    1.202703    0.468224
     18          6           0       -5.845471    1.957665    0.691385
     19          6           0       -5.873613    2.606587    2.050146
     20          8           0       -6.761523    2.105064   -0.108912
     21          6           0       -5.362109   -1.025830   -0.306610
     22          8           0       -5.700002   -1.271442    0.853766
     23          7           0       -5.546921   -1.936324   -1.329680
     24          6           0       -6.313341   -3.137202   -1.101806
     25          7           0        5.317114   -0.954414    0.386194
     26          6           0        6.592789   -1.320386    0.006462
     27          6           0        7.406793   -1.904916    1.132598
     28          8           0        7.056061   -1.193626   -1.120221
     29          1           0        4.069979    4.188864   -1.867033
     30          1           0        4.778745    4.012278   -0.234434
     31          1           0        5.772623    3.674367   -1.679294
     32          1           0        3.949786    1.873741   -2.102340
     33          1           0        3.549843   -0.231948   -2.481281
     34          1           0        5.299382   -0.294621   -2.479752
     35          1           0        4.359644   -1.718369   -1.983641
     36          1           0        2.299876    0.348297   -0.578090
     37          1           0        2.637665   -1.290426   -0.029117
     38          1           0        3.119615    1.230220    1.647773
     39          1           0        3.319733   -0.427711    2.204911
     40          1           0        1.185139    0.634876    2.931455
     41          1           0        0.694811    0.845127    1.267917
     42          1           0        1.085020   -1.815854    2.803767
     43          1           0       -0.563315   -2.748177    1.415594
     44          1           0       -0.388747   -0.184647   -0.300568
     45          1           0       -0.881344   -1.784812   -0.813578
     46          1           0       -2.404345   -0.056993    1.205402
     47          1           0       -2.911175   -1.650327    0.638210
     48          1           0       -2.516529    0.827950   -1.121304
     49          1           0       -2.962010   -0.766832   -1.719931
     50          1           0       -4.692376    0.333396   -2.866922
     51          1           0       -6.154787    0.878476   -2.074595
     52          1           0       -4.719022    1.923308   -2.102835
     53          1           0       -4.323436    0.836469    1.330521
     54          1           0       -6.275624    3.619613    1.956290
     55          1           0       -6.508753    2.017328    2.716132
     56          1           0       -4.869307    2.678712    2.479202
     57          1           0       -5.479129   -1.610457   -2.284033
     58          1           0       -7.371260   -2.871583   -1.027967
     59          1           0       -5.992361   -3.619384   -0.173873
     60          1           0       -6.157980   -3.813371   -1.945344
     61          1           0        5.264049   -0.711831    1.368492
     62          1           0        8.076444   -1.135680    1.525721
     63          1           0        6.766367   -2.272435    1.939217
     64          1           0        7.992526   -2.746182    0.752557
 ---------------------------------------------------------------------
 Rotational constants (GHZ):      0.3087958      0.0498579      0.0474622
 Standard basis: 6-31G(d) (6D, 7F)
 There are   492 symmetry adapted basis functions of A   symmetry.
 Integral buffers will be    131072 words long.
 Raffenetti 1 integral format.
 Two-electron integral symmetry is turned on.
   492 basis functions,   928 primitive gaussians,   492 cartesian basis functions
   108 alpha electrons      108 beta electrons
       nuclear repulsion energy      2634.8226061554 Hartrees.
 NAtoms=   64 NActive=   64 NUniq=   64 SFac= 7.50D-01 NAtFMM=   80 NAOKFM=F Big=T
 One-electron integrals computed using PRISM.
 NBasis=   492 RedAO= T  NBF=   492
 NBsUse=   492 1.00D-06 NBFU=   492
 Harris functional with IExCor=  205 diagonalized for initial guess.
 ExpMin= 1.61D-01 ExpMax= 5.48D+03 ExpMxC= 8.25D+02 IAcc=1 IRadAn=         1 AccDes= 0.00D+00
 HarFok:  IExCor=  205 AccDes= 0.00D+00 IRadAn=         1 IDoV= 1
 ScaDFX=  1.000000  1.000000  1.000000  1.000000
 FoFCou: FMM=F IPFlag=           0 FMFlag=      100000 FMFlg1=           1
         NFxFlg=           0 DoJE=T BraDBF=F KetDBF=T FulRan=T
         Omega=  0.000000  0.000000  1.000000  0.000000  0.000000 ICntrl=     500 IOpCl=  0
         NMat0=    1 NMatS0=    1 NMatT0=    0 NMatD0=    1 NMtDS0=    0 NMtDT0=    0
         I1Cent=           4 NGrid=           0.
 Petite list used in FoFCou.
 Initial guess orbital symmetries:
       Occupied  (A) (A) (A) (A) (A) (A) (A) (A) (A) (A) (A) (A)
                 (A) (A) (A) (A) (A) (A) (A) (A) (A) (A) (A) (A)
                 (A) (A) (A) (A) (A) (A) (A) (A) (A) (A) (A) (A)
                 (A) (A) (A) (A) (A) (A) (A) (A) (A) (A) (A) (A)
                 (A) (A) (A) (A) (A) (A) (A) (A) (A) (A) (A) (A)
                 (A) (A) (A) (A) (A) (A) (A) (A) (A) (A) (A) (A)
                 (A) (A) (A) (A) (A) (A) (A) (A) (A) (A) (A) (A)
                 (A) (A) (A) (A) (A) (A) (A) (A) (A) (A) (A) (A)
                 (A) (A) (A) (A) (A) (A) (A) (A) (A) (A) (A) (A)
       Virtual   (A) (A) (A) (A) (A) (A) (A) (A) (A) (A) (A) (A)
                 (A) (A) (A) (A) (A) (A) (A) (A) (A) (A) (A) (A)
                 (A) (A) (A) (A) (A) (A) (A) (A) (A) (A) (A) (A)
                 (A) (A) (A) (A) (A) (A) (A) (A) (A) (A) (A) (A)
                 (A) (A) (A) (A) (A) (A) (A) (A) (A) (A) (A) (A)
                 (A) (A) (A) (A) (A) (A) (A) (A) (A) (A) (A) (A)
                 (A) (A) (A) (A) (A) (A) (A) (A) (A) (A) (A) (A)
                 (A) (A) (A) (A) (A) (A) (A) (A) (A) (A) (A) (A)
                 (A) (A) (A) (A) (A) (A) (A) (A) (A) (A) (A) (A)
                 (A) (A) (A) (A) (A) (A) (A) (A) (A) (A) (A) (A)
                 (A) (A) (A) (A) (A) (A) (A) (A) (A) (A) (A) (A)
                 (A) (A) (A) (A) (A) (A) (A) (A) (A) (A) (A) (A)
                 (A) (A) (A) (A) (A) (A) (A) (A) (A) (A) (A) (A)
                 (A) (A) (A) (A) (A) (A) (A) (A) (A) (A) (A) (A)
                 (A) (A) (A) (A) (A) (A) (A) (A) (A) (A) (A) (A)
                 (A) (A) (A) (A) (A) (A) (A) (A) (A) (A) (A) (A)
                 (A) (A) (A) (A) (A) (A) (A) (A) (A) (A) (A) (A)
                 (A) (A) (A) (A) (A) (A) (A) (A) (A) (A) (A) (A)
                 (A) (A) (A) (A) (A) (A) (A) (A) (A) (A) (A) (A)
                 (A) (A) (A) (A) (A) (A) (A) (A) (A) (A) (A) (A)
                 (A) (A) (A) (A) (A) (A) (A) (A) (A) (A) (A) (A)
                 (A) (A) (A) (A) (A) (A) (A) (A) (A) (A) (A) (A)
                 (A) (A) (A) (A) (A) (A) (A) (A) (A) (A) (A) (A)
                 (A) (A) (A) (A) (A) (A) (A) (A) (A) (A) (A) (A)
                 (A) (A) (A) (A) (A) (A) (A) (A) (A) (A) (A) (A)
                 (A) (A) (A) (A) (A) (A) (A) (A) (A) (A) (A) (A)
                 (A) (A) (A) (A) (A) (A) (A) (A) (A) (A) (A) (A)
                 (A) (A) (A) (A) (A) (A) (A) (A) (A) (A) (A) (A)
                 (A) (A) (A) (A) (A) (A) (A) (A) (A) (A) (A) (A)
                 (A) (A) (A) (A) (A) (A) (A) (A) (A) (A) (A) (A)
                 (A) (A) (A) (A) (A) (A) (A) (A) (A) (A) (A) (A)
                 (A) (A) (A) (A) (A) (A) (A) (A) (A) (A) (A) (A)
 The electronic state of the initial guess is 1-A.
 Requested convergence on RMS density matrix=1.00D-08 within 128 cycles.
 Requested convergence on MAX density matrix=1.00D-06.
 Requested convergence on             energy=1.00D-06.
 No special actions if energy rises.
 Integral accuracy reduced to 1.0D-05 until final iterations.
 Initial convergence to 1.0D-05 achieved.  Increase integral accuracy.
 SCF Done:  E(RHF) =  -1295.60252227     A.U. after   14 cycles
             Convg  =    0.7481D-08             -V/T =  2.0024

 **********************************************************************

            Population analysis using the SCF density.

 **********************************************************************

 Orbital symmetries:
 BldTbl:  Degeneracy threshold= 1.00D-02
       Occupied  (A) (A) (A) (A) (A) (A) (A) (A) (A) (A) (A) (A)
                 (A) (A) (A) (A) (A) (A) (A) (A) (A) (A) (A) (A)
                 (A) (A) (A) (A) (A) (A) (A) (A) (A) (A) (A) (A)
                 (A) (A) (A) (A) (A) (A) (A) (A) (A) (A) (A) (A)
                 (A) (A) (A) (A) (A) (A) (A) (A) (A) (A) (A) (A)
                 (A) (A) (A) (A) (A) (A) (A) (A) (A) (A) (A) (A)
                 (A) (A) (A) (A) (A) (A) (A) (A) (A) (A) (A) (A)
                 (A) (A) (A) (A) (A) (A) (A) (A) (A) (A) (A) (A)
                 (A) (A) (A) (A) (A) (A) (A) (A) (A) (A) (A) (A)
       Virtual   (A) (A) (A) (A) (A) (A) (A) (A) (A) (A) (A) (A)
                 (A) (A) (A) (A) (A) (A) (A) (A) (A) (A) (A) (A)
                 (A) (A) (A) (A) (A) (A) (A) (A) (A) (A) (A) (A)
                 (A) (A) (A) (A) (A) (A) (A) (A) (A) (A) (A) (A)
                 (A) (A) (A) (A) (A) (A) (A) (A) (A) (A) (A) (A)
                 (A) (A) (A) (A) (A) (A) (A) (A) (A) (A) (A) (A)
                 (A) (A) (A) (A) (A) (A) (A) (A) (A) (A) (A) (A)
                 (A) (A) (A) (A) (A) (A) (A) (A) (A) (A) (A) (A)
                 (A) (A) (A) (A) (A) (A) (A) (A) (A) (A) (A) (A)
                 (A) (A) (A) (A) (A) (A) (A) (A) (A) (A) (A) (A)
                 (A) (A) (A) (A) (A) (A) (A) (A) (A) (A) (A) (A)
                 (A) (A) (A) (A) (A) (A) (A) (A) (A) (A) (A) (A)
                 (A) (A) (A) (A) (A) (A) (A) (A) (A) (A) (A) (A)
                 (A) (A) (A) (A) (A) (A) (A) (A) (A) (A) (A) (A)
                 (A) (A) (A) (A) (A) (A) (A) (A) (A) (A) (A) (A)
                 (A) (A) (A) (A) (A) (A) (A) (A) (A) (A) (A) (A)
                 (A) (A) (A) (A) (A) (A) (A) (A) (A) (A) (A) (A)
                 (A) (A) (A) (A) (A) (A) (A) (A) (A) (A) (A) (A)
                 (A) (A) (A) (A) (A) (A) (A) (A) (A) (A) (A) (A)
                 (A) (A) (A) (A) (A) (A) (A) (A) (A) (A) (A) (A)
                 (A) (A) (A) (A) (A) (A) (A) (A) (A) (A) (A) (A)
                 (A) (A) (A) (A) (A) (A) (A) (A) (A) (A) (A) (A)
                 (A) (A) (A) (A) (A) (A) (A) (A) (A) (A) (A) (A)
                 (A) (A) (A) (A) (A) (A) (A) (A) (A) (A) (A) (A)
                 (A) (A) (A) (A) (A) (A) (A) (A) (A) (A) (A) (A)
                 (A) (A) (A) (A) (A) (A) (A) (A) (A) (A) (A) (A)
                 (A) (A) (A) (A) (A) (A) (A) (A) (A) (A) (A) (A)
                 (A) (A) (A) (A) (A) (A) (A) (A) (A) (A) (A) (A)
                 (A) (A) (A) (A) (A) (A) (A) (A) (A) (A) (A) (A)
                 (A) (A) (A) (A) (A) (A) (A) (A) (A) (A) (A) (A)
                 (A) (A) (A) (A) (A) (A) (A) (A) (A) (A) (A) (A)
                 (A) (A) (A) (A) (A) (A) (A) (A) (A) (A) (A) (A)
 The electronic state is 1-A.
 Alpha  occ. eigenvalues --  -20.53438 -20.53254 -20.52375 -20.52242 -15.59371
 Alpha  occ. eigenvalues --  -15.59186 -15.58518 -15.58358 -11.35744 -11.35536
 Alpha  occ. eigenvalues --  -11.35175 -11.35034 -11.30053 -11.29838 -11.26274
 Alpha  occ. eigenvalues --  -11.26142 -11.24411 -11.23993 -11.23572 -11.23430
 Alpha  occ. eigenvalues --  -11.23409 -11.23387 -11.23273 -11.23241 -11.23172
 Alpha  occ. eigenvalues --  -11.23050 -11.22964 -11.22798  -1.38129  -1.38002
 Alpha  occ. eigenvalues --   -1.36951  -1.36836  -1.23131  -1.22974  -1.22858
 Alpha  occ. eigenvalues --   -1.22696  -1.11418  -1.09614  -1.07509  -1.04959
 Alpha  occ. eigenvalues --   -1.01081  -0.98997  -0.98764  -0.95561  -0.94992
 Alpha  occ. eigenvalues --   -0.94783  -0.91675  -0.86868  -0.85645  -0.82608
 Alpha  occ. eigenvalues --   -0.81628  -0.79353  -0.79199  -0.75745  -0.75685
 Alpha  occ. eigenvalues --   -0.73086  -0.71995  -0.71831  -0.67807  -0.67436
 Alpha  occ. eigenvalues --   -0.66841  -0.65105  -0.64779  -0.63980  -0.63811
 Alpha  occ. eigenvalues --   -0.62566  -0.61846  -0.61795  -0.61572  -0.61272
 Alpha  occ. eigenvalues --   -0.61084  -0.59525  -0.59503  -0.58543  -0.58399
 Alpha  occ. eigenvalues --   -0.57915  -0.57115  -0.56525  -0.56136  -0.55722
 Alpha  occ. eigenvalues --   -0.55404  -0.55193  -0.55037  -0.54637  -0.54512
 Alpha  occ. eigenvalues --   -0.53214  -0.53066  -0.52500  -0.52108  -0.51483
 Alpha  occ. eigenvalues --   -0.50990  -0.50387  -0.50095  -0.49682  -0.49024
 Alpha  occ. eigenvalues --   -0.48521  -0.47517  -0.46508  -0.45644  -0.42581
 Alpha  occ. eigenvalues --   -0.42386  -0.41292  -0.41138  -0.39381  -0.39218
 Alpha  occ. eigenvalues --   -0.38984  -0.38784  -0.34741
 Alpha virt. eigenvalues --    0.17112   0.18322   0.18732   0.19220   0.19427
 Alpha virt. eigenvalues --    0.20346   0.20627   0.21967   0.22547   0.23022
 Alpha virt. eigenvalues --    0.23939   0.25257   0.25610   0.26123   0.26696
 Alpha virt. eigenvalues --    0.27222   0.27817   0.27938   0.28703   0.29166
 Alpha virt. eigenvalues --    0.29768   0.29908   0.30446   0.30592   0.30868
 Alpha virt. eigenvalues --    0.31689   0.31934   0.32175   0.32443   0.32553
 Alpha virt. eigenvalues --    0.32685   0.33018   0.33517   0.33882   0.34048
 Alpha virt. eigenvalues --    0.34381   0.34877   0.35150   0.35619   0.36114
 Alpha virt. eigenvalues --    0.36599   0.36953   0.37873   0.38045   0.39767
 Alpha virt. eigenvalues --    0.39986   0.41222   0.41613   0.41964   0.42715
 Alpha virt. eigenvalues --    0.43134   0.43985   0.44675   0.45361   0.45804
 Alpha virt. eigenvalues --    0.47459   0.47782   0.48526   0.50256   0.50836
 Alpha virt. eigenvalues --    0.54119   0.55069   0.55738   0.59338   0.59846
 Alpha virt. eigenvalues --    0.60821   0.61072   0.62463   0.68941   0.69310
 Alpha virt. eigenvalues --    0.69946   0.70244   0.70932   0.73112   0.73543
 Alpha virt. eigenvalues --    0.73833   0.74150   0.74696   0.75967   0.76405
 Alpha virt. eigenvalues --    0.76513   0.76655   0.76883   0.76972   0.78299
 Alpha virt. eigenvalues --    0.80301   0.80408   0.80689   0.81936   0.82242
 Alpha virt. eigenvalues --    0.83349   0.83591   0.84288   0.84683   0.85776
 Alpha virt. eigenvalues --    0.86432   0.87742   0.88167   0.88498   0.89322
 Alpha virt. eigenvalues --    0.89817   0.90148   0.91612   0.92107   0.92258
 Alpha virt. eigenvalues --    0.92925   0.93134   0.94407   0.96303   0.96656
 Alpha virt. eigenvalues --    0.97511   0.98097   0.98662   0.99021   0.99466
 Alpha virt. eigenvalues --    0.99795   1.00760   1.01329   1.01651   1.02447
 Alpha virt. eigenvalues --    1.03574   1.04026   1.05218   1.05997   1.06654
 Alpha virt. eigenvalues --    1.08014   1.08800   1.09604   1.10431   1.11003
 Alpha virt. eigenvalues --    1.11174   1.11779   1.12094   1.12349   1.12809
 Alpha virt. eigenvalues --    1.12948   1.13292   1.13522   1.14107   1.14560
 Alpha virt. eigenvalues --    1.14760   1.15606   1.15889   1.16067   1.16394
 Alpha virt. eigenvalues --    1.16811   1.17222   1.18163   1.18232   1.18473
 Alpha virt. eigenvalues --    1.18965   1.19090   1.19660   1.20211   1.20287
 Alpha virt. eigenvalues --    1.20844   1.21011   1.21110   1.21136   1.21256
 Alpha virt. eigenvalues --    1.21924   1.22144   1.22839   1.23433   1.23742
 Alpha virt. eigenvalues --    1.24124   1.24579   1.25690   1.26678   1.27008
 Alpha virt. eigenvalues --    1.27727   1.28493   1.29328   1.29641   1.31095
 Alpha virt. eigenvalues --    1.31612   1.32797   1.33231   1.35194   1.35573
 Alpha virt. eigenvalues --    1.36320   1.37498   1.39237   1.40838   1.41243
 Alpha virt. eigenvalues --    1.42106   1.42976   1.43434   1.44611   1.45003
 Alpha virt. eigenvalues --    1.47877   1.48391   1.50566   1.51942   1.53042
 Alpha virt. eigenvalues --    1.55662   1.55895   1.59253   1.60145   1.60593
 Alpha virt. eigenvalues --    1.61863   1.62458   1.65581   1.67471   1.69569
 Alpha virt. eigenvalues --    1.69820   1.71381   1.71919   1.72381   1.72866
 Alpha virt. eigenvalues --    1.73740   1.76270   1.76765   1.78427   1.78512
 Alpha virt. eigenvalues --    1.78837   1.80592   1.82844   1.84109   1.86201
 Alpha virt. eigenvalues --    1.86881   1.87626   1.89366   1.91600   1.92827
 Alpha virt. eigenvalues --    1.93627   1.98086   1.98662   1.99847   1.99957
 Alpha virt. eigenvalues --    2.02483   2.03043   2.05014   2.05777   2.06629
 Alpha virt. eigenvalues --    2.07771   2.08397   2.08620   2.09230   2.11367
 Alpha virt. eigenvalues --    2.11436   2.12078   2.12790   2.13570   2.15270
 Alpha virt. eigenvalues --    2.15454   2.15921   2.16603   2.17367   2.17964
 Alpha virt. eigenvalues --    2.19428   2.19489   2.19748   2.20619   2.21455
 Alpha virt. eigenvalues --    2.22594   2.23660   2.24160   2.24765   2.25617
 Alpha virt. eigenvalues --    2.25949   2.26755   2.27296   2.29117   2.29421
 Alpha virt. eigenvalues --    2.30756   2.31297   2.31819   2.32293   2.32668
 Alpha virt. eigenvalues --    2.33316   2.34067   2.34676   2.36256   2.37502
 Alpha virt. eigenvalues --    2.37899   2.38150   2.38439   2.39060   2.40703
 Alpha virt. eigenvalues --    2.41519   2.44213   2.45922   2.46392   2.48433
 Alpha virt. eigenvalues --    2.50758   2.51269   2.51553   2.53591   2.53959
 Alpha virt. eigenvalues --    2.54235   2.56505   2.57261   2.58350   2.58995
 Alpha virt. eigenvalues --    2.60318   2.60566   2.60754   2.61505   2.63165
 Alpha virt. eigenvalues --    2.64003   2.64873   2.65483   2.66846   2.67599
 Alpha virt. eigenvalues --    2.69129   2.69476   2.70918   2.71663   2.72077
 Alpha virt. eigenvalues --    2.73361   2.74548   2.76723   2.77025   2.79110
 Alpha virt. eigenvalues --    2.80224   2.80240   2.82265   2.82977   2.83287
 Alpha virt. eigenvalues --    2.84266   2.85614   2.88816   2.91732   2.92248
 Alpha virt. eigenvalues --    2.93334   2.95037   2.95393   2.96148   2.97573
 Alpha virt. eigenvalues --    2.99860   3.01068   3.03064   3.03679   3.08167
 Alpha virt. eigenvalues --    3.09799   3.10707   3.10880   3.13010   3.13343
 Alpha virt. eigenvalues --    3.16823   3.18451   3.20865   3.26219   3.26283
 Alpha virt. eigenvalues --    3.30088   3.30201   3.38281   3.38409   3.38756
 Alpha virt. eigenvalues --    3.38952   3.40849   3.47723   3.47981   3.53044
 Alpha virt. eigenvalues --    3.53232   4.33845   4.33992   4.47137   4.47499
 Alpha virt. eigenvalues --    4.49697   4.49785   4.52815   4.54343   4.59787
 Alpha virt. eigenvalues --    4.62156   4.62320   4.63785   4.66389   4.69748
 Alpha virt. eigenvalues --    4.69782   4.72729   4.73352   4.80704   4.83291
 Alpha virt. eigenvalues --    4.86060   4.86713   4.91042   4.91572   4.95103
 Alpha virt. eigenvalues --    4.99278   5.00899   5.16191   5.16853
          Condensed to atoms (all electrons):
 Mulliken atomic charges:
              1
     1  C   -0.276766
     2  N   -0.796490
     3  C    0.798810
     4  O   -0.645875
     5  C    0.090670
     6  C   -0.504310
     7  C   -0.293456
     8  C   -0.334693
     9  C   -0.352071
    10  C   -0.171655
    11  C   -0.170900
    12  C   -0.347614
    13  C   -0.331278
    14  C   -0.292419
    15  C    0.090241
    16  C   -0.503911
    17  N   -0.797404
    18  C    0.772756
    19  C   -0.588989
    20  O   -0.620301
    21  C    0.797897
    22  O   -0.645472
    23  N   -0.795921
    24  C   -0.277196
    25  N   -0.796768
    26  C    0.773272
    27  C   -0.588409
    28  O   -0.620738
    29  H    0.166724
    30  H    0.206026
    31  H    0.178282
    32  H    0.391793
    33  H    0.140742
    34  H    0.222588
    35  H    0.195988
    36  H    0.162447
    37  H    0.194325
    38  H    0.189295
    39  H    0.152273
    40  H    0.176677
    41  H    0.169283
    42  H    0.178280
    43  H    0.180430
    44  H    0.166505
    45  H    0.167705
    46  H    0.160832
    47  H    0.188141
    48  H    0.178170
    49  H    0.167924
    50  H    0.141756
    51  H    0.222981
    52  H    0.195950
    53  H    0.400776
    54  H    0.208431
    55  H    0.213647
    56  H    0.172807
    57  H    0.392396
    58  H    0.178790
    59  H    0.206066
    60  H    0.167589
    61  H    0.399927
    62  H    0.212702
    63  H    0.172543
    64  H    0.208200
 Sum of Mulliken atomic charges =   0.00000
 Mulliken charges with hydrogens summed into heavy atoms:
              1
     1  C    0.274266
     2  N   -0.404697
     3  C    0.798810
     4  O   -0.645875
     5  C    0.090670
     6  C    0.055007
     7  C    0.063316
     8  C    0.006874
     9  C   -0.006111
    10  C    0.006625
    11  C    0.009531
    12  C   -0.013404
    13  C    0.017695
    14  C    0.053675
    15  C    0.090241
    16  C    0.056777
    17  N   -0.396628
    18  C    0.772756
    19  C    0.005895
    20  O   -0.620301
    21  C    0.797897
    22  O   -0.645472
    23  N   -0.403525
    24  C    0.275248
    25  N   -0.396841
    26  C    0.773272
    27  C    0.005036
    28  O   -0.620738
 Sum of Mulliken charges with hydrogens summed into heavy atoms =   0.00000
 DipInt: DoE/N= T F RetVal/Mat= T F Init=T NMatP=  1 IDeriv=0 Min/MaxMlt=  0  4
 Entering OneElI...
 OneElI was handed    32936476 working-precision words.
 Multipole integrals L=0 to 4 MinM= 0 MaxM= 0.
 Requested accuracy = 0.1000D-12
 PrsmSu:  NPrtUS=   1 ThrOK=F IAlg=1
 PRISM was handed    32089380 working-precision words and 10038 shell-pairs
 IPart=  0 NShTot=       10038 NBatch=          72 AvBLen=       139.4
 Electronic moments (au):
       -216.00000000         -0.28219592         -0.40398731         -0.52412517
     -18661.04253579      -2323.76405582      -1329.74986277          8.20470712
         13.09803705         -0.05061362      -2862.37687242      -2314.73749814
       -249.09668505       2108.60024737        944.05123777       4792.69854365
        589.86322413       -355.38256612        750.09548594       5627.77660701
   -2333700.02592899     -63645.02573378     -19893.01168848     100123.69336207
      -4308.44118090     -32416.59960354        650.86123289       1278.99993374
       -923.69129460    -248072.65063390    -103236.09758212     -15628.55852505
     -20657.84439660       8401.96477070       4574.56525047
 Electronic spatial extent (au):  <R**2>=          22314.5565
 DipInt: DoE/N= F T RetVal/Mat= T F Init=T NMatP=  1 IDeriv=0 Min/MaxMlt=  0  4
 Nuclear    moments (au):
        216.00000000          0.00000000          0.00000000          0.00000000
      18480.22522854       2199.75449224       1210.85799800          0.00000000
          0.00000000          0.00000000       2835.70470794       2320.59490575
        229.89837970      -2098.45979168      -1116.57907931      -4733.72673913
       -632.53798155        374.50221792       -765.78445056      -5800.95938764
    2256681.58343893      56021.85128654      15356.14472559     -98368.57051426
       7036.04062128      32920.53256327       -642.20047513      -1204.12178510
        949.05921816     236020.48997769      92283.51651278      13626.32376429
      20730.51055597      -8548.79031281      -4505.46931070
 Total      moments (au):
          0.00000000         -0.28219592         -0.40398731         -0.52412517
       -180.81730725       -124.00956358       -118.89186478          8.20470712
         13.09803705         -0.05061362        -26.67216448          5.85740762
        -19.19830535         10.14045569       -172.52784154         58.97180451
        -42.67475742         19.11965180        -15.68896462       -173.18278063
     -77018.44249006      -7623.17444724      -4536.86696289       1755.12284781
       2727.59944039        503.93295974          8.66075777         74.87814864
         25.36792355     -12052.16065621     -10952.58106935      -2002.23476075
         72.66615937       -146.82554211         69.09593976
 Traceless Quadrup. (au):
        -39.57772871         17.23001496         22.34771376          8.20470712
         13.09803705         -0.05061362
 Charge=              0.0000 electrons
 Dipole moment (field-independent basis, Debye):
    X=             -0.7173    Y=             -1.0268    Z=             -1.3322  Tot=              1.8286
 Quadrupole moment (field-independent basis, Debye-Ang):
   XX=           -243.2055   YY=           -166.7971   ZZ=           -159.9136
   XY=             11.0356   XZ=             17.6173   YZ=             -0.0681
 Traceless Quadrupole moment (field-independent basis, Debye-Ang):
   XX=            -53.2334   YY=             23.1750   ZZ=             30.0584
   XY=             11.0356   XZ=             17.6173   YZ=             -0.0681
 Octapole moment (field-independent basis, Debye-Ang**2):
  XXX=            -18.9842  YYY=              4.1691  ZZZ=            -13.6646  XYY=              7.2176
  XXY=           -122.7987  XXZ=             41.9739  XZZ=            -30.3742  YZZ=             13.6086
  YYZ=            -11.1668  XYZ=           -123.2648
 Hexadecapole moment (field-independent basis, Debye-Ang**3):
 XXXX=         -29008.8367 YYYY=          -2871.2528 ZZZZ=          -1708.8015 XXXY=            661.0634
 XXXZ=           1027.3447 YYYX=            189.8053 YYYZ=              3.2621 ZZZX=             28.2027
 ZZZY=              9.5548 XXYY=          -4539.4213 XXZZ=          -4125.2670 YYZZ=           -754.1376
 XXYZ=             27.3696 YYXZ=            -55.3015 ZZXY=             26.0248
 N-N= 2.634822606155D+03 E-N=-8.299779793813D+03  KE= 1.292511801411D+03
 Entering OneElI...
 OneElI was handed    32450256 working-precision words.
 Calculate electrostatic properties
    NBasis =   492  MinDer = 0  MaxDer = 0
    NGrid  =    64  NMatD  =   1
 Requested accuracy = 0.1000D-12
 PrsmSu:  NPrtUS=   1 ThrOK=F IAlg=1
 PRISM was handed    31704184 working-precision words and  8364 shell-pairs
 IPart=  0 NShTot=      535296 NBatch=        8364 AvBLen=        64.0
 --------------------------------------------------------
       Center         ----      EFG at Nuclei      ----
                      3XX-RR        3YY-RR        3ZZ-RR
 --------------------------------------------------------
     1   Atom        0.097465     -0.255201      0.157737
     2   Atom        0.639924     -0.495505     -0.144419
     3   Atom       -0.258499      0.285056     -0.026557
     4   Atom       -0.810525      1.394627     -0.584101
     5   Atom        0.015425     -0.068269      0.052843
     6   Atom        0.061099      0.022751     -0.083850
     7   Atom       -0.078021      0.066955      0.011066
     8   Atom       -0.016426      0.037223     -0.020796
     9   Atom       -0.008021     -0.014937      0.022958
    10   Atom       -0.047215      0.058899     -0.011684
    11   Atom       -0.045729      0.064282     -0.018553
    12   Atom       -0.002014      0.014326     -0.012312
    13   Atom       -0.011946      0.022055     -0.010109
    14   Atom       -0.067162      0.048444      0.018718
    15   Atom        0.125195     -0.079196     -0.045999
    16   Atom        0.084823      0.011399     -0.096222
    17   Atom        0.209633      0.207235     -0.416868
    18   Atom        0.014649     -0.261599      0.246950
    19   Atom        0.021299      0.013024     -0.034323
    20   Atom       -0.444099      0.175268      0.268831
    21   Atom       -0.362278      0.116996      0.245282
    22   Atom       -0.381452      1.109776     -0.728324
    23   Atom        0.752561     -0.263787     -0.488775
    24   Atom        0.022730     -0.165575      0.142844
    25   Atom       -0.181290      0.638369     -0.457079
    26   Atom        0.072729     -0.412014      0.339285
    27   Atom        0.011869      0.008500     -0.020370
    28   Atom        0.940069     -0.322981     -0.617088
    29   Atom       -0.028867      0.014871      0.013995
    30   Atom        0.153588      0.076020     -0.229608
    31   Atom       -0.221459      0.134227      0.087232
    32   Atom        0.139032      0.085574     -0.224606
    33   Atom       -0.124301      0.086106      0.038196
    34   Atom       -0.130542      0.102796      0.027746
    35   Atom        0.152570     -0.291053      0.138483
    36   Atom       -0.014120      0.023853     -0.009733
    37   Atom        0.107253     -0.244790      0.137537
    38   Atom        0.096649     -0.232209      0.135560
    39   Atom        0.020039      0.005487     -0.025526
    40   Atom        0.143638      0.073417     -0.217055
    41   Atom        0.023023     -0.007468     -0.015555
    42   Atom        0.095355     -0.001599     -0.093756
    43   Atom        0.114547     -0.246558      0.132012
    44   Atom        0.040480     -0.151159      0.110679
    45   Atom        0.145136     -0.032640     -0.112496
    46   Atom        0.139516     -0.020164     -0.119352
    47   Atom        0.039225     -0.156800      0.117575
    48   Atom        0.031912     -0.155494      0.123582
    49   Atom        0.133614     -0.015959     -0.117654
    50   Atom        0.101213      0.025291     -0.126504
    51   Atom       -0.283970      0.144796      0.139174
    52   Atom        0.107616     -0.245137      0.137521
    53   Atom        0.113170      0.120680     -0.233850
    54   Atom        0.092175     -0.232753      0.140579
    55   Atom        0.001974      0.019963     -0.021937
    56   Atom       -0.224788      0.146723      0.078065
    57   Atom        0.223208      0.111619     -0.334827
    58   Atom       -0.269039      0.114328      0.154712
    59   Atom        0.106734      0.052720     -0.159454
    60   Atom        0.144352     -0.028573     -0.115778
    61   Atom        0.165719      0.187780     -0.353499
    62   Atom       -0.018097     -0.072257      0.090354
    63   Atom       -0.008796      0.102700     -0.093904
    64   Atom        0.020689     -0.113787      0.093098
 --------------------------------------------------------
                        XY            XZ            YZ
 --------------------------------------------------------
     1   Atom       -0.101941     -0.001092      0.025150
     2   Atom       -0.156335     -0.628692      0.105013
     3   Atom        0.186460      0.389852      0.001269
     4   Atom       -0.123222     -0.060211     -0.809190
     5   Atom        0.099567     -0.125684      0.119985
     6   Atom        0.017370     -0.049501     -0.038720
     7   Atom       -0.012848      0.017937      0.005296
     8   Atom        0.013553      0.008967     -0.005157
     9   Atom       -0.002899      0.013022     -0.000067
    10   Atom        0.132038      0.223134     -0.050038
    11   Atom        0.132935      0.222061     -0.049624
    12   Atom        0.013978      0.008278      0.009490
    13   Atom        0.030882     -0.003672      0.005003
    14   Atom        0.015445      0.032636      0.000198
    15   Atom       -0.025797      0.040186     -0.171390
    16   Atom        0.012713     -0.022871      0.031388
    17   Atom        0.704866     -0.198749     -0.298482
    18   Atom       -0.283063      0.224224      0.268403
    19   Atom       -0.011479     -0.008565     -0.038511
    20   Atom       -0.712679     -0.796175      1.000572
    21   Atom        0.359903     -0.163458     -0.037892
    22   Atom        0.823048      0.325533      0.645232
    23   Atom       -0.568092      0.055070     -0.042264
    24   Atom       -0.186957      0.037318      0.027154
    25   Atom        0.657813     -0.036586      0.033713
    26   Atom       -0.273993     -0.036418     -0.211424
    27   Atom        0.010655     -0.027803      0.037198
    28   Atom       -0.970729      0.754615     -0.291825
    29   Atom        0.143884     -0.165923      0.131283
    30   Atom       -0.008459      0.000286     -0.150528
    31   Atom       -0.028285      0.161632      0.009577
    32   Atom       -0.087464     -0.215952     -0.164511
    33   Atom        0.131350     -0.172301      0.074759
    34   Atom       -0.111910      0.178698      0.061090
    35   Atom       -0.022783     -0.002847     -0.020318
    36   Atom        0.141966     -0.144949      0.139582
    37   Atom       -0.118318     -0.006447     -0.039398
    38   Atom       -0.135858     -0.010952     -0.048356
    39   Atom        0.137595     -0.139192      0.161760
    40   Atom        0.010462      0.031392     -0.160579
    41   Atom        0.135096     -0.143278      0.161367
    42   Atom        0.084604     -0.127758      0.192390
    43   Atom       -0.126126      0.013997      0.085008
    44   Atom       -0.176983      0.060284      0.109985
    45   Atom        0.011294      0.007544     -0.214242
    46   Atom        0.012939      0.007412     -0.216122
    47   Atom       -0.171185      0.050377      0.097702
    48   Atom       -0.176022      0.046496      0.087393
    49   Atom        0.028172      0.025295     -0.209668
    50   Atom        0.081296      0.117680     -0.175899
    51   Atom       -0.008595     -0.036056      0.008741
    52   Atom       -0.134441      0.008769      0.041203
    53   Atom        0.118714     -0.183529      0.150841
    54   Atom        0.153006     -0.013491      0.032069
    55   Atom       -0.142451      0.160373      0.143595
    56   Atom       -0.021019     -0.159031     -0.018252
    57   Atom       -0.043614      0.033938      0.169379
    58   Atom        0.095308      0.029240     -0.003914
    59   Atom        0.047735     -0.110154      0.169457
    60   Atom        0.029646      0.054074     -0.210949
    61   Atom        0.045986      0.024732     -0.128314
    62   Atom       -0.192381     -0.104160     -0.110438
    63   Atom       -0.080842      0.191434      0.114010
    64   Atom        0.187441      0.079345     -0.117884
 --------------------------------------------------------


 ---------------------------------------------------------------------------------
              Nuclear Quadrupole in Principal Axis System
 ---------------------------------------------------------------------------------

       Atom             a.u.   MegaHertz   Gauss  10(-4) cm-1        Axes

              Baa    -0.2839   -38.090   -13.592   -12.706  0.2577  0.9647 -0.0543
     1 C(13)  Bbb     0.1232    16.534     5.900     5.515  0.9482 -0.2417  0.2061
              Bcc     0.1606    21.556     7.692     7.190 -0.1857  0.1046  0.9770
 
              Baa    -0.5264   -20.303    -7.245    -6.773 -0.1121  0.8955 -0.4307
     2 N(14)  Bbb    -0.4857   -18.731    -6.684    -6.248  0.4854  0.4275  0.7627
              Bcc     1.0121    39.034    13.928    13.020  0.8671 -0.1235 -0.4826
 
              Baa    -0.5754   -77.216   -27.553   -25.757  0.8031 -0.1732 -0.5701
     3 C(13)  Bbb     0.1745    23.418     8.356     7.812  0.3618 -0.6184  0.6976
              Bcc     0.4009    53.798    19.196    17.945  0.4733  0.7666  0.4340
 
              Baa    -0.9459    68.444    24.422    22.830  0.5968  0.2901  0.7481
     4 O(17)  Bbb    -0.7412    53.632    19.137    17.890  0.8015 -0.1709 -0.5731
              Bcc     1.6871  -122.076   -43.560   -40.720 -0.0384  0.9416 -0.3345
 
              Baa    -0.2356   -31.619   -11.283   -10.547 -0.5257  0.6796 -0.5117
     5 C(13)  Bbb     0.0697     9.359     3.340     3.122  0.6410  0.7119  0.2869
              Bcc     0.1659    22.260     7.943     7.425 -0.5592  0.1772  0.8098
 
              Baa    -0.1072   -14.388    -5.134    -4.799  0.2501  0.2456  0.9366
     6 C(13)  Bbb     0.0180     2.412     0.861     0.805 -0.4717  0.8756 -0.1037
              Bcc     0.0892    11.976     4.273     3.995  0.8455  0.4159 -0.3348
 
              Baa    -0.0827   -11.103    -3.962    -3.703  0.9772  0.0907 -0.1920
     7 C(13)  Bbb     0.0144     1.933     0.690     0.645  0.1970 -0.0505  0.9791
              Bcc     0.0683     9.170     3.272     3.059 -0.0791  0.9946  0.0672
 
              Baa    -0.0302    -4.056    -1.447    -1.353 -0.6583  0.1880  0.7289
     8 C(13)  Bbb    -0.0104    -1.392    -0.497    -0.464  0.7188 -0.1307  0.6829
              Bcc     0.0406     5.448     1.944     1.817  0.2236  0.9734 -0.0491
 
              Baa    -0.0168    -2.252    -0.803    -0.751  0.5312  0.8294 -0.1727
     9 C(13)  Bbb    -0.0110    -1.470    -0.524    -0.490  0.7743 -0.5580 -0.2985
              Bcc     0.0277     3.721     1.328     1.241  0.3439 -0.0249  0.9387
 
              Baa    -0.3016   -40.473   -14.442   -13.500  0.7137 -0.3459 -0.6090
    10 C(13)  Bbb     0.0843    11.317     4.038     3.775 -0.0346  0.8510 -0.5240
              Bcc     0.2173    29.156    10.404     9.725  0.6996  0.3951  0.5954
 
              Baa    -0.3021   -40.542   -14.467   -13.523  0.7102 -0.3411 -0.6158
    11 C(13)  Bbb     0.0857    11.503     4.105     3.837 -0.0669  0.8381 -0.5413
              Bcc     0.2164    29.039    10.362     9.686  0.7008  0.4257  0.5724
 
              Baa    -0.0170    -2.287    -0.816    -0.763 -0.4163 -0.0882  0.9049
    12 C(13)  Bbb    -0.0093    -1.244    -0.444    -0.415  0.7648 -0.5722  0.2961
              Bcc     0.0263     3.531     1.260     1.178  0.4917  0.8153  0.3057
 
              Baa    -0.0317    -4.255    -1.518    -1.419  0.8277 -0.4993  0.2563
    13 C(13)  Bbb    -0.0087    -1.169    -0.417    -0.390 -0.2452  0.0891  0.9654
              Bcc     0.0404     5.425     1.936     1.810  0.5048  0.8619  0.0486
 
              Baa    -0.0798   -10.710    -3.822    -3.573  0.9433 -0.1131 -0.3122
    14 C(13)  Bbb     0.0285     3.827     1.365     1.276  0.2813 -0.2273  0.9323
              Bcc     0.0513     6.884     2.456     2.296  0.1764  0.9672  0.1826
 
              Baa    -0.2350   -31.530   -11.251   -10.517 -0.0224  0.7382  0.6743
    15 C(13)  Bbb     0.0697     9.359     3.340     3.122  0.6459  0.5255 -0.5539
              Bcc     0.1652    22.171     7.911     7.395  0.7631 -0.4231  0.4885
 
              Baa    -0.1081   -14.500    -5.174    -4.837  0.1307 -0.2649  0.9554
    16 C(13)  Bbb     0.0193     2.593     0.925     0.865 -0.0888  0.9566  0.2774
              Bcc     0.0887    11.907     4.249     3.972  0.9874  0.1211 -0.1015
 
              Baa    -0.5692   -21.952    -7.833    -7.322 -0.3673  0.6050  0.7064
    17 N(14)  Bbb    -0.4315   -16.642    -5.938    -5.551  0.6359 -0.3908  0.6655
              Bcc     1.0007    38.594    13.771    12.874  0.6787  0.6937 -0.2412
 
              Baa    -0.5835   -78.298   -27.939   -26.117  0.5089  0.7694 -0.3861
    18 C(13)  Bbb     0.1826    24.498     8.742     8.172  0.7757 -0.6043 -0.1820
              Bcc     0.4009    53.799    19.197    17.945  0.3734  0.2068  0.9043
 
              Baa    -0.0580    -7.786    -2.778    -2.597  0.1634  0.4904  0.8560
    19 C(13)  Bbb     0.0210     2.819     1.006     0.940  0.9073  0.2660 -0.3256
              Bcc     0.0370     4.967     1.772     1.657 -0.3874  0.8299 -0.4015
 
              Baa    -0.9701    70.198    25.048    23.416  0.8877  0.1834  0.4223
    20 O(17)  Bbb    -0.7748    56.062    20.004    18.700  0.1402  0.7660 -0.6274
              Bcc     1.7449  -126.260   -45.053   -42.116 -0.4386  0.6162  0.6542
 
              Baa    -0.5748   -77.130   -27.522   -25.728  0.8799 -0.4493  0.1546
    21 C(13)  Bbb     0.1758    23.590     8.418     7.869  0.1816  0.6186  0.7644
              Bcc     0.3990    53.540    19.104    17.859  0.4391  0.6445 -0.6259
 
              Baa    -0.9496    68.714    24.519    22.920 -0.2672 -0.1892  0.9449
    22 O(17)  Bbb    -0.7406    53.587    19.121    17.875  0.8802 -0.4471  0.1594
              Bcc     1.6902  -122.301   -43.640   -40.795  0.3923  0.8742  0.2860
 
              Baa    -0.5255   -20.268    -7.232    -6.761  0.3511  0.8315  0.4305
    23 N(14)  Bbb    -0.4841   -18.672    -6.663    -6.228 -0.2132 -0.3767  0.9015
              Bcc     1.0096    38.940    13.895    12.989  0.9118 -0.4082  0.0450
 
              Baa    -0.2850   -38.246   -13.647   -12.758  0.5254  0.8450 -0.0995
    24 C(13)  Bbb     0.1245    16.703     5.960     5.571  0.6408 -0.4699 -0.6071
              Bcc     0.1605    21.544     7.687     7.186  0.5597 -0.2552  0.7884
 
              Baa    -0.5677   -21.893    -7.812    -7.303  0.7995 -0.4473  0.4009
    25 N(14)  Bbb    -0.4360   -16.816    -6.000    -5.609 -0.3541  0.1881  0.9161
              Bcc     1.0037    38.709    13.812    12.912  0.4852  0.8744  0.0080
 
              Baa    -0.5825   -78.160   -27.889   -26.071  0.3867  0.8954  0.2207
    26 C(13)  Bbb     0.1829    24.540     8.757     8.186  0.9114 -0.3345 -0.2399
              Bcc     0.3996    53.619    19.133    17.886  0.1410 -0.2939  0.9454
 
              Baa    -0.0579    -7.775    -2.774    -2.593  0.3855 -0.4971  0.7774
    27 C(13)  Bbb     0.0208     2.793     0.997     0.932  0.8261  0.5612 -0.0508
              Bcc     0.0371     4.982     1.778     1.662 -0.4110  0.6618  0.6270
 
              Baa    -0.9700    70.185    25.044    23.411 -0.5143 -0.4395  0.7364
    28 O(17)  Bbb    -0.7703    55.739    19.889    18.592  0.1821  0.7831  0.5946
              Bcc     1.7403  -125.924   -44.933   -42.004  0.8380 -0.4399  0.3227
 
              Baa    -0.2965  -158.216   -56.456   -52.775  0.6340 -0.5303  0.5629
    29 H(1)   Bbb     0.1363    72.706    25.943    24.252  0.4799  0.8406  0.2513
              Bcc     0.1603    85.511    30.512    28.523 -0.6065  0.1108  0.7874
 
              Baa    -0.2913  -155.432   -55.462   -51.846  0.0066  0.3793  0.9252
    30 H(1)   Bbb     0.1344    71.723    25.592    23.924  0.3823  0.8540 -0.3528
              Bcc     0.1569    83.709    29.869    27.922  0.9240 -0.3560  0.1393
 
              Baa    -0.2927  -156.160   -55.722   -52.089  0.9173  0.0696 -0.3920
    31 H(1)   Bbb     0.1360    72.585    25.900    24.212 -0.0191  0.9912  0.1311
              Bcc     0.1566    83.575    29.822    27.878  0.3977 -0.1128  0.9106
 
              Baa    -0.3969  -211.747   -75.557   -70.631  0.3987  0.3599  0.8435
    32 H(1)   Bbb     0.1563    83.396    29.758    27.818 -0.0512  0.9271 -0.3714
              Bcc     0.2406   128.351    45.799    42.813  0.9157 -0.1049 -0.3880
 
              Baa    -0.2936  -156.645   -55.895   -52.251  0.7880 -0.3696  0.4925
    33 H(1)   Bbb     0.1401    74.736    26.668    24.929 -0.1249  0.6873  0.7156
              Bcc     0.1535    81.910    29.227    27.322  0.6029  0.6254 -0.4954
 
              Baa    -0.2882  -153.765   -54.867   -51.290  0.8008  0.3093 -0.5128
    34 H(1)   Bbb     0.1347    71.890    25.652    23.980  0.1993  0.6697  0.7153
              Bcc     0.1535    81.875    29.215    27.311 -0.5647  0.6751 -0.4747
 
              Baa    -0.2932  -156.431   -55.818   -52.180  0.0513  0.9976  0.0473
    35 H(1)   Bbb     0.1392    74.285    26.507    24.779  0.1207 -0.0532  0.9913
[...]
 **** Fit       0.022482
 **** Fit       0.022805
 **** Fit       0.022407
 **** Fit       0.022304
 **** Fit       0.022325
 **** Fit       0.022107
 **** Fit       0.022534
 **** Fit      -0.023154
 **** Fit      -0.021954
 **** Fit      -0.023000
 **** Fit      -0.018216
 **** Fit      -0.015905
 **** Fit      -0.015938
 **** Fit      -0.018571
 **** Fit      -0.023367
 **** Fit      -0.018136
 **** Fit      -0.014502
 **** Fit      -0.012261
 **** Fit      -0.011225
 **** Fit      -0.011297
 **** Fit      -0.012540
 **** Fit      -0.028311
 **** Fit      -0.021834
 **** Fit      -0.016763
 **** Fit      -0.013032
 **** Fit      -0.010434
 **** Fit      -0.008761
 **** Fit      -0.007849
 **** Fit      -0.007596
 **** Fit      -0.007962
 **** Fit      -0.024530
 **** Fit      -0.018495
 **** Fit      -0.013916
 **** Fit      -0.010559
 **** Fit      -0.008167
 **** Fit      -0.006526
 **** Fit      -0.005476
 **** Fit      -0.004903
 **** Fit      -0.004727
 **** Fit      -0.004904
 **** Fit      -0.027766
 **** Fit      -0.020761
 **** Fit      -0.015397
 **** Fit      -0.011396
 **** Fit      -0.008446
 **** Fit      -0.006293
 **** Fit      -0.004746
 **** Fit      -0.003667
 **** Fit      -0.002949
 **** Fit      -0.002512
 **** Fit      -0.002293
 **** Fit      -0.024706
 **** Fit      -0.018026
 **** Fit      -0.013046
 **** Fit      -0.009365
 **** Fit      -0.006646
 **** Fit      -0.004640
 **** Fit      -0.003167
 **** Fit      -0.002095
 **** Fit      -0.001323
 **** Fit      -0.000769
 **** Fit      -0.000365
 **** Fit      -0.020472
 **** Fit      -0.014808
 **** Fit      -0.010558
 **** Fit      -0.007376
 **** Fit      -0.004986
 **** Fit      -0.003185
 **** Fit      -0.001824
 **** Fit      -0.000793
 **** Fit       0.000000
 **** Fit       0.000628
 **** Fit       0.001157
 **** Fit      -0.018990
 **** Fit      -0.013840
 **** Fit      -0.009836
 **** Fit      -0.006760
 **** Fit      -0.004399
 **** Fit      -0.002580
 **** Fit      -0.001172
 **** Fit      -0.000070
 **** Fit       0.000809
 **** Fit       0.001539
 **** Fit       0.002185
 **** Fit      -0.016690
 **** Fit      -0.012490
 **** Fit      -0.008921
 **** Fit      -0.006033
 **** Fit      -0.003741
 **** Fit      -0.001931
 **** Fit      -0.000498
 **** Fit       0.000651
 **** Fit       0.001596
 **** Fit       0.002409
 **** Fit       0.003162
 **** Fit      -0.008144
 **** Fit      -0.005821
 **** Fit      -0.003701
 **** Fit      -0.001889
 **** Fit      -0.000380
 **** Fit       0.000871
 **** Fit       0.001925
 **** Fit       0.002848
 **** Fit       0.003711
 **** Fit      -0.000922
 **** Fit       0.000234
 **** Fit       0.001337
 **** Fit       0.002350
 **** Fit       0.003290
 **** Fit      -0.020314
 **** Fit      -0.016810
 **** Fit      -0.016018
 **** Fit      -0.017934
 **** Fit      -0.013448
 **** Fit      -0.011428
 **** Fit      -0.010549
 **** Fit      -0.010757
 **** Fit      -0.012204
 **** Fit      -0.015299
 **** Fit      -0.007707
 **** Fit      -0.006782
 **** Fit      -0.006414
 **** Fit      -0.006624
 **** Fit      -0.007507
 **** Fit      -0.009248
 **** Fit      -0.012193
 **** Fit      -0.004136
 **** Fit      -0.003568
 **** Fit      -0.003309
 **** Fit      -0.003387
 **** Fit      -0.003854
 **** Fit      -0.004794
 **** Fit      -0.006346
 **** Fit      -0.008749
 **** Fit      -0.012451
 **** Fit      -0.001424
 **** Fit      -0.001088
 **** Fit      -0.000916
 **** Fit      -0.000936
 **** Fit      -0.001178
 **** Fit      -0.001687
 **** Fit      -0.002516
 **** Fit      -0.003748
 **** Fit      -0.005515
 **** Fit      -0.008049
 **** Fit      -0.006325
 **** Fit       0.000542
 **** Fit       0.000761
 **** Fit       0.000909
 **** Fit       0.000957
 **** Fit       0.000879
 **** Fit       0.000645
 **** Fit       0.000225
 **** Fit      -0.000412
 **** Fit      -0.001308
 **** Fit      -0.002520
 **** Fit      -0.004142
 **** Fit      -0.002415
 **** Fit       0.002357
 **** Fit       0.002400
 **** Fit       0.002418
 **** Fit       0.002382
 **** Fit       0.002267
 **** Fit       0.002048
 **** Fit       0.001706
 **** Fit       0.001223
 **** Fit       0.000586
 **** Fit      -0.000223
 **** Fit      -0.001219
 **** Fit       0.000001
 **** Fit       0.003663
 **** Fit       0.003584
 **** Fit       0.003489
 **** Fit       0.003353
 **** Fit       0.003151
 **** Fit       0.002869
 **** Fit       0.002494
 **** Fit       0.002021
 **** Fit       0.001446
 **** Fit       0.000768
 **** Fit       0.001217
 **** Fit       0.004606
 **** Fit       0.004432
 **** Fit       0.004258
 **** Fit       0.004056
 **** Fit       0.003802
 **** Fit       0.003482
 **** Fit       0.003082
 **** Fit       0.002589
 **** Fit       0.001981
 **** Fit       0.005367
 **** Fit       0.005091
 **** Fit       0.004834
 **** Fit       0.004561
 **** Fit       0.004243
 **** Fit       0.003850
 **** Fit       0.003345
 **** Fit       0.002653
 **** Fit       0.005610
 **** Fit       0.005256
 **** Fit       0.004891
 **** Fit       0.004463
 **** Fit       0.003899
 **** Fit       0.006947
 **** Fit       0.007127
 **** Fit       0.007223
 **** Fit       0.007239
 **** Fit       0.007182
 **** Fit       0.006672
 **** Fit       0.006991
 **** Fit       0.007291
 **** Fit       0.007542
 **** Fit       0.007726
 **** Fit       0.007833
 **** Fit       0.007862
 **** Fit       0.007815
 **** Fit       0.007703
 **** Fit       0.007532
 **** Fit       0.007309
 **** Fit       0.007604
 **** Fit       0.007577
 **** Fit       0.007720
 **** Fit       0.007932
 **** Fit       0.008152
 **** Fit       0.008340
 **** Fit       0.008471
 **** Fit       0.008534
 **** Fit       0.008527
 **** Fit       0.008454
 **** Fit       0.008324
 **** Fit       0.008150
 **** Fit       0.007939
 **** Fit       0.007696
 **** Fit       0.011155
 **** Fit       0.009781
 **** Fit       0.009106
 **** Fit       0.008847
 **** Fit       0.008821
 **** Fit       0.008909
 **** Fit       0.009035
 **** Fit       0.009150
 **** Fit       0.009227
 **** Fit       0.009251
 **** Fit       0.009220
 **** Fit       0.009142
 **** Fit       0.009029
 **** Fit       0.008898
 **** Fit       0.008767
 **** Fit       0.008650
 **** Fit       0.008558
 **** Fit       0.010962
 **** Fit       0.016686
 **** Fit       0.013511
 **** Fit       0.011624
 **** Fit       0.010593
 **** Fit       0.010096
 **** Fit       0.009909
 **** Fit       0.009884
 **** Fit       0.009922
 **** Fit       0.009967
 **** Fit       0.009985
 **** Fit       0.009967
 **** Fit       0.009919
 **** Fit       0.009860
 **** Fit       0.009820
 **** Fit       0.009836
 **** Fit       0.009962
 **** Fit       0.010278
 **** Fit       0.012782
 **** Fit       0.018944
 **** Fit       0.015552
 **** Fit       0.013311
 **** Fit       0.011979
 **** Fit       0.011265
 **** Fit       0.010928
 **** Fit       0.010796
 **** Fit       0.010757
 **** Fit       0.010746
 **** Fit       0.010738
 **** Fit       0.010733
 **** Fit       0.010762
 **** Fit       0.010874
 **** Fit       0.011148
 **** Fit       0.011711
 **** Fit       0.014015
 **** Fit       0.016143
 **** Fit       0.019156
 **** Fit       0.021767
 **** Fit       0.018831
 **** Fit       0.015994
 **** Fit       0.013942
 **** Fit       0.012693
 **** Fit       0.012025
 **** Fit       0.011710
 **** Fit       0.011581
 **** Fit       0.011547
 **** Fit       0.011584
 **** Fit       0.011727
 **** Fit       0.012064
 **** Fit       0.012749
 **** Fit       0.014719
 **** Fit       0.016807
 **** Fit       0.018817
 **** Fit       0.019085
 **** Fit       0.017371
 **** Fit       0.015197
 **** Fit       0.013643
 **** Fit       0.012822
 **** Fit       0.012490
 **** Fit       0.012459
 **** Fit       0.012707
 **** Fit       0.013377
 **** Fit       0.014967
 **** Fit       0.016511
 **** Fit       0.016035
 **** Fit       0.014371
 **** Fit       0.013541
 **** Fit       0.013732
 **** Fit       0.014831
 **** Fit       0.018274
 **** Fit       0.015324
 **** Fit       0.020303
 **** Fit       0.019390
 **** Fit       0.011198
 **** Fit       0.021537
 **** Fit       0.021247
 **** Fit       0.005442
 **** Fit       0.022019
 **** Fit      -0.003196
 **** Fit       0.021757
 **** Fit       0.021873
 **** Fit       0.020856
 **** Fit       0.020675
 **** Fit       0.019298
 **** Fit       0.018882
 **** Fit       0.018909
 **** Fit       0.016833
 **** Fit       0.016451
 **** Fit       0.016283
 **** Fit       0.016634
 **** Fit       0.005412
 **** Fit       0.004625
 **** Fit       0.004235
 **** Fit       0.004970
 **** Fit       0.006296
 **** Fit       0.006472
 **** Fit       0.005577
 **** Fit       0.003855
 **** Fit       0.003231
 **** Fit       0.002869
 **** Fit       0.003065
 **** Fit       0.004134
 **** Fit       0.005878
 **** Fit       0.007398
 **** Fit       0.007930
 **** Fit       0.007506
 **** Fit       0.006580
 **** Fit       0.005559
 **** Fit       0.004636
 **** Fit       0.003044
 **** Fit       0.002383
 **** Fit       0.001765
 **** Fit       0.001253
 **** Fit       0.001040
 **** Fit       0.001445
 **** Fit       0.002737
 **** Fit       0.004837
 **** Fit       0.007156
 **** Fit       0.008899
 **** Fit       0.009622
 **** Fit       0.004540
 **** Fit       0.003754
 **** Fit       0.002153
 **** Fit       0.001445
 **** Fit       0.000719
 **** Fit      -0.000042
 **** Fit      -0.000788
 **** Fit      -0.001353
 **** Fit      -0.001429
 **** Fit      -0.000628
 **** Fit       0.001304
 **** Fit       0.004219
 **** Fit       0.007471
 **** Fit       0.010166
 **** Fit       0.003649
 **** Fit       0.002878
 **** Fit       0.001154
 **** Fit       0.000366
 **** Fit      -0.000458
 **** Fit      -0.001369
 **** Fit      -0.002397
 **** Fit      -0.003500
 **** Fit      -0.004507
 **** Fit      -0.005069
 **** Fit      -0.004679
 **** Fit      -0.002861
 **** Fit       0.000528
 **** Fit       0.005044
 **** Fit       0.009688
 **** Fit       0.001955
 **** Fit       0.000024
 **** Fit      -0.000863
 **** Fit      -0.001774
 **** Fit      -0.002783
 **** Fit      -0.003962
 **** Fit      -0.005362
 **** Fit      -0.006963
 **** Fit      -0.008606
 **** Fit      -0.009918
 **** Fit      -0.010280
 **** Fit      -0.008961
 **** Fit      -0.005458
 **** Fit       0.000124
 **** Fit       0.006947
 **** Fit      -0.001262
 **** Fit      -0.002345
 **** Fit      -0.003419
 **** Fit      -0.004590
 **** Fit      -0.005976
 **** Fit      -0.007694
 **** Fit      -0.009832
 **** Fit      -0.012372
 **** Fit      -0.015074
 **** Fit      -0.017317
 **** Fit      -0.004082
 **** Fit      -0.005344
 **** Fit      -0.006670
 **** Fit      -0.008216
 **** Fit      -0.010162
 **** Fit      -0.012698
 **** Fit      -0.015984
 **** Fit      -0.020038
 **** Fit      -0.007740
 **** Fit      -0.009266
 **** Fit      -0.011005
 **** Fit      -0.013200
 **** Fit      -0.016151
 **** Fit      -0.020205
 **** Fit      -0.014819
 **** Fit      -0.017460
 **** Fit      -0.021169
 **** Fit       0.010638
 **** Fit       0.009834
 **** Fit       0.008717
 **** Fit       0.012154
 **** Fit       0.012166
 **** Fit       0.011393
 **** Fit       0.010292
 **** Fit       0.009159
 **** Fit       0.008179
 **** Fit       0.014428
 **** Fit       0.013967
 **** Fit       0.012969
 **** Fit       0.011810
 **** Fit       0.010661
 **** Fit       0.009574
 **** Fit       0.008572
 **** Fit       0.007703
 **** Fit       0.017443
 **** Fit       0.016686
 **** Fit       0.015323
 **** Fit       0.013850
 **** Fit       0.012489
 **** Fit       0.011274
 **** Fit       0.010173
 **** Fit       0.009154
 **** Fit       0.008215
 **** Fit       0.007381
 **** Fit       0.021422
 **** Fit       0.019479
 **** Fit       0.017232
 **** Fit       0.015204
 **** Fit       0.013525
 **** Fit       0.012144
 **** Fit       0.010965
 **** Fit       0.009906
 **** Fit       0.008924
 **** Fit       0.008009
 **** Fit       0.007181
 **** Fit       0.019116
 **** Fit       0.016423
 **** Fit       0.014388
 **** Fit       0.012831
 **** Fit       0.011576
 **** Fit       0.010498
 **** Fit       0.009517
 **** Fit       0.008596
 **** Fit       0.007728
 **** Fit       0.006935
 **** Fit       0.006257
 **** Fit       0.020554
 **** Fit       0.017037
 **** Fit       0.014631
 **** Fit       0.012918
 **** Fit       0.011608
 **** Fit       0.010518
 **** Fit       0.009539
 **** Fit       0.008618
 **** Fit       0.007738
 **** Fit       0.006916
 **** Fit       0.006193
 **** Fit       0.016926
 **** Fit       0.014330
 **** Fit       0.012599
 **** Fit       0.011329
 **** Fit       0.010293
 **** Fit       0.009366
 **** Fit       0.008486
 **** Fit       0.007631
 **** Fit       0.006813
 **** Fit       0.006067
 **** Fit       0.014155
 **** Fit       0.012282
 **** Fit       0.011029
 **** Fit       0.010060
 **** Fit       0.009208
 **** Fit       0.008393
 **** Fit       0.007582
 **** Fit       0.006775
 **** Fit       0.006000
 **** Fit       0.005316
 **** Fit       0.010738
 **** Fit       0.009822
 **** Fit       0.009113
 **** Fit       0.008441
 **** Fit       0.007740
 **** Fit       0.006992
 **** Fit       0.006208
 **** Fit       0.005428
 **** Fit       0.007589
 **** Fit       0.007396
 **** Fit       0.006991
 **** Fit       0.006414
 **** Fit       0.005711
 **** Fit       0.004938
 **** Fit       0.005234
 **** Fit       0.005612
 **** Fit       0.005476
 **** Fit       0.005012
 **** Fit       0.004342
 **** Fit       0.003994
 **** Fit       0.002736
 **** Fit       0.002015
 **** Fit       0.000360
 **** Fit      -0.000526
 **** Fit       0.003970
 **** Fit       0.003380
 **** Fit       0.002763
 **** Fit       0.002059
 **** Fit       0.001249
 **** Fit      -0.000598
 **** Fit      -0.001701
 **** Fit      -0.002791
 **** Fit       0.003760
 **** Fit       0.003253
 **** Fit       0.002715
 **** Fit       0.002084
 **** Fit       0.001324
 **** Fit       0.000425
 **** Fit      -0.001685
 **** Fit      -0.003034
 **** Fit      -0.004470
 **** Fit       0.003600
 **** Fit       0.003131
 **** Fit       0.002655
 **** Fit       0.002095
 **** Fit       0.001404
 **** Fit       0.000549
 **** Fit      -0.000482
 **** Fit      -0.003000
 **** Fit      -0.004578
 **** Fit      -0.006329
 **** Fit      -0.008196
 **** Fit       0.003242
 **** Fit       0.002799
 **** Fit       0.002371
 **** Fit       0.001881
 **** Fit       0.001271
 **** Fit       0.000500
 **** Fit      -0.000459
 **** Fit      -0.001624
 **** Fit      -0.004645
 **** Fit      -0.006504
 **** Fit      -0.008628
 **** Fit      -0.010996
 **** Fit       0.002773
 **** Fit       0.002309
 **** Fit       0.001900
 **** Fit       0.001461
 **** Fit       0.000924
 **** Fit       0.000239
 **** Fit      -0.000632
 **** Fit      -0.001722
 **** Fit      -0.003054
 **** Fit      -0.006732
 **** Fit      -0.009033
 **** Fit      -0.011746
 **** Fit      -0.014900
 **** Fit      -0.018499
 **** Fit       0.001788
 **** Fit       0.001315
 **** Fit       0.000885
 **** Fit       0.000407
 **** Fit      -0.000190
 **** Fit      -0.000964
 **** Fit      -0.001965
 **** Fit      -0.003234
 **** Fit      -0.004811
 **** Fit      -0.009394
 **** Fit      -0.012328
 **** Fit      -0.015926
 **** Fit      -0.020319
 **** Fit       0.000095
 **** Fit      -0.000386
 **** Fit      -0.000915
 **** Fit      -0.001583
 **** Fit      -0.002462
 **** Fit      -0.003619
 **** Fit      -0.005116
 **** Fit      -0.007017
 **** Fit      -0.012788
 **** Fit      -0.016548
 **** Fit      -0.021360
 **** Fit      -0.001560
 **** Fit      -0.002102
 **** Fit      -0.002695
 **** Fit      -0.003444
 **** Fit      -0.004444
 **** Fit      -0.005783
 **** Fit      -0.007549
 **** Fit      -0.009843
 **** Fit      -0.017108
 **** Fit      -0.022347
 **** Fit      -0.004174
 **** Fit      -0.004812
 **** Fit      -0.005605
 **** Fit      -0.006699
 **** Fit      -0.008231
 **** Fit      -0.010349
 **** Fit      -0.013228
 **** Fit      -0.022583
 **** Fit      -0.007897
 **** Fit      -0.008610
 **** Fit      -0.009705
 **** Fit      -0.011382
 **** Fit      -0.013866
 **** Fit      -0.017454
 **** Fit      -0.013866
 **** Fit      -0.015324
 **** Fit      -0.018024
 -----------------------------------------------------------------
 Leave Link  602 at Fri Dec  6 21:24:28 2019, MaxMem=   33554432 cpu:       5.4

 Test job not archived.
 1\1\GINC-MOSURA\FOpt\RHF\6-31G(d)\C20H36N4O4\MARIE\06-Dec-2019\0\\#HF/
 6-31G* SCF=tight Test Pop=MK iop(6/33=2) iop(6/42=6) opt\\remark line 
 goes here\\0,1\C,-6.3546641753,2.1857020514,2.05976643\N,-5.5736052544
 ,1.0331571279,1.6570303128\C,-5.4269624447,0.7411604319,0.346112294\O,
 -5.8020446159,1.4867326865,-0.5190157337\C,-4.6455807776,-0.5430125502
 ,-0.0157075033\C,-4.6709901784,-1.6247260647,1.0766507131\C,-3.1625893
 594,-0.1653984044,-0.2624382379\C,-2.8486551382,0.8939112794,-1.325922
 8153\C,-1.3373354524,1.1492280074,-1.4589449775\C,-0.5809045549,-0.017
 0707003,-2.0422355788\C,0.4213931724,-0.7043600175,-1.5190502833\C,1.0
 973800014,-0.512126051,-0.1865106386\C,2.5826404721,-0.1519077607,-0.3
 429885751\C,3.2620016236,0.0068580988,1.0224390005\C,4.7850833842,0.29
 36364344,1.0591751254\C,5.1802360121,0.4968858995,2.5311193785\N,5.055
 3751633,1.5121839055,0.3090408101\C,6.3330842185,1.9203250456,0.057106
 5418\C,6.4659915921,2.9699862621,-1.0227698856\O,7.2837471708,1.482863
 9483,0.6438423823\C,5.5171830595,-0.877910943,0.3641970968\O,5.6029054
 368,-0.9133373987,-0.8345335949\N,5.9552602589,-1.8896366721,1.1441719
 073\C,6.704617004,-2.9846527793,0.5608991904\N,-5.2032427824,-1.085775
 025,-1.2467397505\C,-6.5334792212,-1.358314568,-1.3657536899\C,-7.0186
 62181,-1.5707616133,-2.7818709911\O,-7.2707327189,-1.4245538043,-0.421
 082346\H,-6.2584070641,2.3106449564,3.1304238084\H,-5.9790401826,3.070
 631074,1.5677918642\H,-7.4026760481,2.071330237,1.8061401614\H,-5.4899
 464861,0.2942589778,2.3137937277\H,-4.1211528644,-1.3067018087,1.95709
 83032\H,-5.680845671,-1.8867913502,1.3558221431\H,-4.1851048222,-2.514
 0828124,0.6943480869\H,-2.7591827056,0.1761636243,0.6866967895\H,-2.63
 99792995,-1.0853239919,-0.5049850732\H,-3.343523262,1.8245072647,-1.08
 21280532\H,-3.2327680855,0.5980969125,-2.2994805917\H,-1.2004178141,2.
 0054324016,-2.1165766872\H,-0.9338509734,1.4387154121,-0.4950764375\H,
 -0.9161718578,-0.3119020673,-3.0259914617\H,0.8342305412,-1.5047245346
 ,-2.1143514462\H,0.5961180661,0.2487979883,0.4008726392\H,1.0197245757
 ,-1.4393082072,0.3795653467\H,2.6450385162,0.7680347901,-0.9186868597\
 H,3.0843499033,-0.9115069594,-0.9287625515\H,2.7761307843,0.8111509101
 ,1.5691374176\H,3.0969050459,-0.899465848,1.5978106877\H,4.8305457635,
 -0.3258421322,3.1472791328\H,6.2479105156,0.6081729766,2.6476604185\H,
 4.7058535445,1.3998947595,2.8953946734\H,4.403225629,1.7213921089,-0.4
 114335449\H,7.4067760564,3.4863553777,-0.8993545457\H,6.4646221962,2.4
 754373912,-1.9894843703\H,5.6493637664,3.682733915,-1.0010434518\H,6.0
 936375289,-1.7121696958,2.1104208324\H,7.6651452003,-2.6573582841,0.17
 89277339\H,6.1430330908,-3.4180435939,-0.2533781082\H,6.8613143442,-3.
 7387912624,1.3210050619\H,-4.7545341044,-0.798472487,-2.0857002085\H,-
 7.2163003064,-0.6015526517,-3.2298006408\H,-6.2860213862,-2.0875917889
 ,-3.3914295164\H,-7.9394518497,-2.135208428,-2.7585118613\\Version=EM6
 4L-G09RevA.02\State=1-A\HF=-1295.6275059\RMSD=3.712e-09\RMSF=2.917e-06
 \Dipole=0.1864948,-0.2924539,0.8009006\Quadrupole=-37.1878009,14.67238
 78,22.5154131,-4.0316321,3.564335,-1.442075\PG=C01 [X(C20H36N4O4)]\\@


 I do not feel obliged to believe that the same God who
 has endowed us with sense, reason, and intellect has
 intended us to forgo their use.
                   --Galileo Galilei
 Job cpu time:  0 days  2 hours 16 minutes 58.7 seconds.
 File lengths (MBytes):  RWF=    156 Int=      0 D2E=      0 Chk=     18 Scr=      1
 Normal termination of Gaussian 09 at Fri Dec  6 21:24:28 2019.
