 Entering Gaussian System, Link 0=g09
 Input=13.gau
 Output=13.log
 Initial command:
 /home/marie/Utilities//g09/l1.exe /tmp/g09/Gau-14674.inp -scrdir=/tmp/g09/
 Entering Link 1 = /home/marie/Utilities//g09/l1.exe PID=     14676.
  
 Copyright (c) 1988,1990,1992,1993,1995,1998,2003,2009, Gaussian, Inc.
                  All Rights Reserved.
  
 This is part of the Gaussian(R) 09 program.  It is based on
 the Gaussian(R) 03 system (copyright 2003, Gaussian, Inc.),
 the Gaussian(R) 98 system (copyright 1998, Gaussian, Inc.),
 the Gaussian(R) 94 system (copyright 1995, Gaussian, Inc.),
 the Gaussian 92(TM) system (copyright 1992, Gaussian, Inc.),
 the Gaussian 90(TM) system (copyright 1990, Gaussian, Inc.),
 the Gaussian 88(TM) system (copyright 1988, Gaussian, Inc.),
 the Gaussian 86(TM) system (copyright 1986, Carnegie Mellon
 University), and the Gaussian 82(TM) system (copyright 1983,
 Carnegie Mellon University). Gaussian is a federally registered
 trademark of Gaussian, Inc.
  
 This software contains proprietary and confidential information,
 including trade secrets, belonging to Gaussian, Inc.
  
 This software is provided under written license and may be
 used, copied, transmitted, or stored only in accord with that
 written license.
  
 The following legend is applicable only to US Government
 contracts under FAR:
  
                    RESTRICTED RIGHTS LEGEND
  
 Use, reproduction and disclosure by the US Government is
 subject to restrictions as set forth in subparagraphs (a)
 and (c) of the Commercial Computer Software - Restricted
 Rights clause in FAR 52.227-19.
  
 Gaussian, Inc.
 340 Quinnipiac St., Bldg. 40, Wallingford CT 06492
  
  
 ---------------------------------------------------------------
 Warning -- This program may not be used in any manner that
 competes with the business of Gaussian, Inc. or will provide
 assistance to any competitor of Gaussian, Inc.  The licensee
 of this program is prohibited from giving any competitor of
 Gaussian, Inc. access to this program.  By using this program,
 the user acknowledges that Gaussian, Inc. is engaged in the
 business of creating and licensing software in the field of
 computational chemistry and represents and warrants to the
 licensee that it is not a competitor of Gaussian, Inc. and that
 it will not use this program in any manner prohibited above.
 ---------------------------------------------------------------
  

 Cite this work as:
 Gaussian 09, Revision A.02,
 M. J. Frisch, G. W. Trucks, H. B. Schlegel, G. E. Scuseria, 
 M. A. Robb, J. R. Cheeseman, G. Scalmani, V. Barone, B. Mennucci, 
 G. A. Petersson, H. Nakatsuji, M. Caricato, X. Li, H. P. Hratchian, 
 A. F. Izmaylov, J. Bloino, G. Zheng, J. L. Sonnenberg, M. Hada, 
 M. Ehara, K. Toyota, R. Fukuda, J. Hasegawa, M. Ishida, T. Nakajima, 
 Y. Honda, O. Kitao, H. Nakai, T. Vreven, J. A. Montgomery, Jr., 
 J. E. Peralta, F. Ogliaro, M. Bearpark, J. J. Heyd, E. Brothers, 
 K. N. Kudin, V. N. Staroverov, R. Kobayashi, J. Normand, 
 K. Raghavachari, A. Rendell, J. C. Burant, S. S. Iyengar, J. Tomasi, 
 M. Cossi, N. Rega, J. M. Millam, M. Klene, J. E. Knox, J. B. Cross, 
 V. Bakken, C. Adamo, J. Jaramillo, R. Gomperts, R. E. Stratmann, 
 O. Yazyev, A. J. Austin, R. Cammi, C. Pomelli, J. W. Ochterski, 
 R. L. Martin, K. Morokuma, V. G. Zakrzewski, G. A. Voth, 
 P. Salvador, J. J. Dannenberg, S. Dapprich, A. D. Daniels, 
 O. Farkas, J. B. Foresman, J. V. Ortiz, J. Cioslowski, 
 and D. J. Fox, Gaussian, Inc., Wallingford CT, 2009.
 
 ******************************************
 Gaussian 09:  EM64L-G09RevA.02 11-Jun-2009
                22-Nov-2019 
 ******************************************
 %chk=conf13
 ------------------------------------------------------------
 #HF/6-31G* SCF=tight Test Pop=MK iop(6/33=2) iop(6/42=6) opt
 ------------------------------------------------------------
 1/18=20,19=15,38=1/1,3;
 2/9=110,12=2,17=6,18=5,40=1/2;
 3/5=1,6=6,7=1,11=9,16=1,25=1,30=1,71=1/1,2,3;
 4//1;
 5/5=2,32=2,38=5/2;
 6/7=2,8=2,9=2,10=2,15=8,20=1,28=1,33=2,42=6/1,2;
 7//1,2,3,16;
 1/18=20,19=15/3(2);
 2/9=110/2;
 99//99;
 2/9=110/2;
 3/5=1,6=6,7=1,11=9,16=1,25=1,30=1,71=1/1,2,3;
 4/5=5,16=3/1;
 5/5=2,32=2,38=5/2;
 7//1,2,3,16;
 1/18=20,19=15/3(-5);
 2/9=110/2;
 6/7=2,8=2,9=2,10=2,15=8,19=2,20=1,28=1,33=2,42=6/1,2;
 99/9=1/99;
 ---------------------
 remark line goes here
 ---------------------
 Symbolic Z-matrix:
 Charge =  0 Multiplicity = 1
 C                     7.275     1.65     -2.288 
 N                     6.019     1.28     -1.682 
 C                     6.002     0.659    -0.447 
 O                     7.02      0.561     0.243 
 C                     4.59      0.244     0.105 
 C                     3.996     1.547     0.678 
 C                     3.665    -0.341    -0.999 
 C                     2.464    -1.209    -0.586 
 C                     1.447    -0.529     0.328 
 C                     0.203    -1.362     0.469 
 C                    -1.024    -1.074     0.006 
 C                    -1.426     0.122    -0.81 
 C                    -2.04      1.247     0.027 
 C                    -3.335     0.917     0.791 
 C                    -4.6       0.597    -0.056 
 C                    -4.828     1.688    -1.113 
 N                    -4.468    -0.757    -0.634 
 C                    -5.28     -1.236    -1.64 
 C                    -5.134    -2.718    -1.871 
 O                    -6.059    -0.556    -2.298 
 C                    -5.792     0.49      0.956 
 O                    -6.148    -0.596     1.422 
 N                    -6.328     1.684     1.401 
 C                    -7.461     1.683     2.293 
 N                     4.851    -0.686     1.221 
 C                     5.332    -1.964     1.003 
 C                     5.775    -2.663     2.26 
 O                     5.411    -2.498    -0.098 
 H                     7.903     2.175    -1.563 
 H                     7.071     2.3      -3.142 
 H                     7.785     0.743    -2.623 
 H                     5.242     1.125    -2.309 
 H                     3.112     1.371     1.294 
 H                     4.722     2.059     1.323 
 H                     3.726     2.25     -0.118 
 H                     3.281     0.481    -1.619 
 H                     4.27     -0.947    -1.688 
 H                     2.808    -2.138    -0.117 
 H                     1.959    -1.518    -1.512 
 H                     1.87     -0.409     1.331 
 H                     1.216     0.474    -0.044 
 H                     0.33     -2.29      1.028 
 H                    -1.817    -1.791     0.213 
 H                    -0.558     0.523    -1.347 
 H                    -2.115    -0.198    -1.597 
 H                    -1.295     1.575     0.764 
 H                    -2.208     2.114    -0.622 
 H                    -3.142     0.096     1.495 
 H                    -3.552     1.789     1.425 
 H                    -4.633     2.687    -0.706 
 H                    -5.863     1.703    -1.472 
 H                    -4.173     1.551    -1.98 
 H                    -4.259    -1.461     0.067 
 H                    -4.185    -3.092    -1.477 
 H                    -5.157    -2.917    -2.946 
 H                    -5.96     -3.24     -1.381 
 H                    -6.184     2.514     0.844 
 H                    -7.588     2.692     2.693 
 H                    -8.352     1.392     1.731 
 H                    -7.298     0.976     3.111 
 H                     5.269    -0.243     2.031 
 H                     6.865    -2.626     2.326 
 H                     5.442    -3.704     2.228 
 H                     5.345    -2.196     3.151 
 

 GradGradGradGradGradGradGradGradGradGradGradGradGradGradGradGradGradGrad
 Berny optimization.
 Initialization pass.
                           ----------------------------
                           !    Initial Parameters    !
                           ! (Angstroms and Degrees)  !
 --------------------------                            --------------------------
 ! Name  Definition              Value          Derivative Info.                !
 --------------------------------------------------------------------------------
 ! R1    R(1,2)                  1.4428         estimate D2E/DX2                !
 ! R2    R(1,29)                 1.0935         estimate D2E/DX2                !
 ! R3    R(1,30)                 1.0924         estimate D2E/DX2                !
 ! R4    R(1,31)                 1.0931         estimate D2E/DX2                !
 ! R5    R(2,3)                  1.3824         estimate D2E/DX2                !
 ! R6    R(2,32)                 1.0104         estimate D2E/DX2                !
 ! R7    R(3,4)                  1.2337         estimate D2E/DX2                !
 ! R8    R(3,5)                  1.5718         estimate D2E/DX2                !
 ! R9    R(5,6)                  1.5424         estimate D2E/DX2                !
 ! R10   R(5,7)                  1.5546         estimate D2E/DX2                !
 ! R11   R(5,25)                 1.476          estimate D2E/DX2                !
 ! R12   R(6,33)                 1.0917         estimate D2E/DX2                !
 ! R13   R(6,34)                 1.0978         estimate D2E/DX2                !
 ! R14   R(6,35)                 1.0958         estimate D2E/DX2                !
 ! R15   R(7,8)                  1.5383         estimate D2E/DX2                !
 ! R16   R(7,36)                 1.0989         estimate D2E/DX2                !
 ! R17   R(7,37)                 1.0991         estimate D2E/DX2                !
 ! R18   R(8,9)                  1.5271         estimate D2E/DX2                !
 ! R19   R(8,38)                 1.0961         estimate D2E/DX2                !
 ! R20   R(8,39)                 1.0991         estimate D2E/DX2                !
 ! R21   R(9,10)                 1.5038         estimate D2E/DX2                !
 ! R22   R(9,40)                 1.0951         estimate D2E/DX2                !
 ! R23   R(9,41)                 1.0944         estimate D2E/DX2                !
 ! R24   R(10,11)                1.3427         estimate D2E/DX2                !
 ! R25   R(10,42)                1.0908         estimate D2E/DX2                !
 ! R26   R(11,12)                1.5026         estimate D2E/DX2                !
 ! R27   R(11,43)                1.0889         estimate D2E/DX2                !
 ! R28   R(12,13)                1.5307         estimate D2E/DX2                !
 ! R29   R(12,44)                1.0966         estimate D2E/DX2                !
 ! R30   R(12,45)                1.0938         estimate D2E/DX2                !
 ! R31   R(13,14)                1.5394         estimate D2E/DX2                !
 ! R32   R(13,46)                1.0981         estimate D2E/DX2                !
 ! R33   R(13,47)                1.096          estimate D2E/DX2                !
 ! R34   R(14,15)                1.5556         estimate D2E/DX2                !
 ! R35   R(14,48)                1.0986         estimate D2E/DX2                !
 ! R36   R(14,49)                1.0997         estimate D2E/DX2                !
 ! R37   R(15,16)                1.5361         estimate D2E/DX2                !
 ! R38   R(15,17)                1.4781         estimate D2E/DX2                !
 ! R39   R(15,21)                1.5673         estimate D2E/DX2                !
 ! R40   R(16,50)                1.0962         estimate D2E/DX2                !
 ! R41   R(16,51)                1.0956         estimate D2E/DX2                !
 ! R42   R(16,52)                1.0952         estimate D2E/DX2                !
 ! R43   R(17,18)                1.3787         estimate D2E/DX2                !
 ! R44   R(17,53)                1.0152         estimate D2E/DX2                !
 ! R45   R(18,19)                1.507          estimate D2E/DX2                !
 ! R46   R(18,20)                1.2256         estimate D2E/DX2                !
 ! R47   R(19,54)                1.0935         estimate D2E/DX2                !
 ! R48   R(19,55)                1.0935         estimate D2E/DX2                !
 ! R49   R(19,56)                1.0931         estimate D2E/DX2                !
 ! R50   R(21,22)                1.2342         estimate D2E/DX2                !
 ! R51   R(21,23)                1.3824         estimate D2E/DX2                !
 ! R52   R(23,24)                1.442          estimate D2E/DX2                !
 ! R53   R(23,57)                1.0099         estimate D2E/DX2                !
 ! R54   R(24,58)                1.0928         estimate D2E/DX2                !
 ! R55   R(24,59)                1.0929         estimate D2E/DX2                !
 ! R56   R(24,60)                1.0934         estimate D2E/DX2                !
 ! R57   R(25,26)                1.3828         estimate D2E/DX2                !
 ! R58   R(25,61)                1.0134         estimate D2E/DX2                !
 ! R59   R(26,27)                1.505          estimate D2E/DX2                !
 ! R60   R(26,28)                1.2262         estimate D2E/DX2                !
 ! R61   R(27,62)                1.0926         estimate D2E/DX2                !
 ! R62   R(27,63)                1.0934         estimate D2E/DX2                !
 ! R63   R(27,64)                1.094          estimate D2E/DX2                !
 ! A1    A(2,1,29)             110.158          estimate D2E/DX2                !
 ! A2    A(2,1,30)             108.5641         estimate D2E/DX2                !
 ! A3    A(2,1,31)             108.7886         estimate D2E/DX2                !
 ! A4    A(29,1,30)            109.8703         estimate D2E/DX2                !
 ! A5    A(29,1,31)            109.4883         estimate D2E/DX2                !
 ! A6    A(30,1,31)            109.9519         estimate D2E/DX2                !
 ! A7    A(1,2,3)              120.0742         estimate D2E/DX2                !
 ! A8    A(1,2,32)             116.6247         estimate D2E/DX2                !
 ! A9    A(3,2,32)             118.4246         estimate D2E/DX2                !
 ! A10   A(2,3,4)              121.68           estimate D2E/DX2                !
 ! A11   A(2,3,5)              116.3193         estimate D2E/DX2                !
 ! A12   A(4,3,5)              121.5917         estimate D2E/DX2                !
 ! A13   A(3,5,6)              104.6773         estimate D2E/DX2                !
 ! A14   A(3,5,7)              112.611          estimate D2E/DX2                !
 ! A15   A(3,5,25)             105.8453         estimate D2E/DX2                !
 ! A16   A(6,5,7)              110.6452         estimate D2E/DX2                !
 ! A17   A(6,5,25)             108.6329         estimate D2E/DX2                !
 ! A18   A(7,5,25)             113.8959         estimate D2E/DX2                !
 ! A19   A(5,6,33)             112.66           estimate D2E/DX2                !
 ! A20   A(5,6,34)             110.9512         estimate D2E/DX2                !
 ! A21   A(5,6,35)             111.531          estimate D2E/DX2                !
 ! A22   A(33,6,34)            106.2095         estimate D2E/DX2                !
 ! A23   A(33,6,35)            108.2877         estimate D2E/DX2                !
 ! A24   A(34,6,35)            106.8898         estimate D2E/DX2                !
 ! A25   A(5,7,8)              119.0926         estimate D2E/DX2                !
 ! A26   A(5,7,36)             109.094          estimate D2E/DX2                !
 ! A27   A(5,7,37)             108.9744         estimate D2E/DX2                !
 ! A28   A(8,7,36)             107.5019         estimate D2E/DX2                !
 ! A29   A(8,7,37)             106.6754         estimate D2E/DX2                !
 ! A30   A(36,7,37)            104.5428         estimate D2E/DX2                !
 ! A31   A(7,8,9)              115.4274         estimate D2E/DX2                !
 ! A32   A(7,8,38)             110.3713         estimate D2E/DX2                !
 ! A33   A(7,8,39)             106.9277         estimate D2E/DX2                !
 ! A34   A(9,8,38)             109.2886         estimate D2E/DX2                !
 ! A35   A(9,8,39)             108.8721         estimate D2E/DX2                !
 ! A36   A(38,8,39)            105.4518         estimate D2E/DX2                !
 ! A37   A(8,9,10)             111.1235         estimate D2E/DX2                !
 ! A38   A(8,9,40)             109.8598         estimate D2E/DX2                !
 ! A39   A(8,9,41)             110.1949         estimate D2E/DX2                !
 ! A40   A(10,9,40)            107.1187         estimate D2E/DX2                !
 ! A41   A(10,9,41)            111.4034         estimate D2E/DX2                !
 ! A42   A(40,9,41)            107.0024         estimate D2E/DX2                !
 ! A43   A(9,10,11)            127.2161         estimate D2E/DX2                !
 ! A44   A(9,10,42)            115.0249         estimate D2E/DX2                !
 ! A45   A(11,10,42)           117.749          estimate D2E/DX2                !
 ! A46   A(10,11,12)           127.0464         estimate D2E/DX2                !
 ! A47   A(10,11,43)           117.3033         estimate D2E/DX2                !
 ! A48   A(12,11,43)           115.6253         estimate D2E/DX2                !
 ! A49   A(11,12,13)           113.2872         estimate D2E/DX2                !
 ! A50   A(11,12,44)           110.1949         estimate D2E/DX2                !
 ! A51   A(11,12,45)           109.0493         estimate D2E/DX2                !
 ! A52   A(13,12,44)           108.4514         estimate D2E/DX2                !
 ! A53   A(13,12,45)           110.8397         estimate D2E/DX2                !
 ! A54   A(44,12,45)           104.6684         estimate D2E/DX2                !
 ! A55   A(12,13,14)           116.8249         estimate D2E/DX2                !
 ! A56   A(12,13,46)           108.3235         estimate D2E/DX2                !
 ! A57   A(12,13,47)           108.6079         estimate D2E/DX2                !
 ! A58   A(14,13,46)           107.5588         estimate D2E/DX2                !
 ! A59   A(14,13,47)           109.5444         estimate D2E/DX2                !
 ! A60   A(46,13,47)           105.3761         estimate D2E/DX2                !
 ! A61   A(13,14,15)           117.2553         estimate D2E/DX2                !
 ! A62   A(13,14,48)           109.2967         estimate D2E/DX2                !
 ! A63   A(13,14,49)           106.3879         estimate D2E/DX2                !
 ! A64   A(15,14,48)           109.7573         estimate D2E/DX2                !
 ! A65   A(15,14,49)           108.4536         estimate D2E/DX2                !
 ! A66   A(48,14,49)           104.9391         estimate D2E/DX2                !
 ! A67   A(14,15,16)           110.4419         estimate D2E/DX2                !
 ! A68   A(14,15,17)           109.1911         estimate D2E/DX2                !
 ! A69   A(14,15,21)           106.3157         estimate D2E/DX2                !
 ! A70   A(16,15,17)           113.2528         estimate D2E/DX2                !
 ! A71   A(16,15,21)           112.3284         estimate D2E/DX2                !
 ! A72   A(17,15,21)           104.9438         estimate D2E/DX2                !
 ! A73   A(15,16,50)           111.4311         estimate D2E/DX2                !
 ! A74   A(15,16,51)           112.0506         estimate D2E/DX2                !
 ! A75   A(15,16,52)           111.5381         estimate D2E/DX2                !
 ! A76   A(50,16,51)           106.0949         estimate D2E/DX2                !
 ! A77   A(50,16,52)           107.5493         estimate D2E/DX2                !
 ! A78   A(51,16,52)           107.8964         estimate D2E/DX2                !
 ! A79   A(15,17,18)           123.4349         estimate D2E/DX2                !
 ! A80   A(15,17,53)           112.5562         estimate D2E/DX2                !
 ! A81   A(18,17,53)           112.5911         estimate D2E/DX2                !
 ! A82   A(17,18,19)           113.3569         estimate D2E/DX2                !
 ! A83   A(17,18,20)           124.9812         estimate D2E/DX2                !
 ! A84   A(19,18,20)           121.6612         estimate D2E/DX2                !
 ! A85   A(18,19,54)           111.4202         estimate D2E/DX2                !
 ! A86   A(18,19,55)           109.1244         estimate D2E/DX2                !
 ! A87   A(18,19,56)           109.1294         estimate D2E/DX2                !
 ! A88   A(54,19,55)           108.073          estimate D2E/DX2                !
 ! A89   A(54,19,56)           109.3267         estimate D2E/DX2                !
 ! A90   A(55,19,56)           109.7479         estimate D2E/DX2                !
 ! A91   A(15,21,22)           121.5496         estimate D2E/DX2                !
 ! A92   A(15,21,23)           116.3452         estimate D2E/DX2                !
 ! A93   A(22,21,23)           121.7776         estimate D2E/DX2                !
 ! A94   A(21,23,24)           120.2108         estimate D2E/DX2                !
 ! A95   A(21,23,57)           118.4922         estimate D2E/DX2                !
 ! A96   A(24,23,57)           116.9866         estimate D2E/DX2                !
 ! A97   A(23,24,58)           108.4873         estimate D2E/DX2                !
 ! A98   A(23,24,59)           108.8237         estimate D2E/DX2                !
 ! A99   A(23,24,60)           110.2486         estimate D2E/DX2                !
 ! A100  A(58,24,59)           109.8359         estimate D2E/DX2                !
 ! A101  A(58,24,60)           109.9078         estimate D2E/DX2                !
 ! A102  A(59,24,60)           109.5164         estimate D2E/DX2                !
 ! A103  A(5,25,26)            121.6444         estimate D2E/DX2                !
 ! A104  A(5,25,61)            113.6929         estimate D2E/DX2                !
 ! A105  A(26,25,61)           112.7383         estimate D2E/DX2                !
 ! A106  A(25,26,27)           113.5767         estimate D2E/DX2                !
 ! A107  A(25,26,28)           124.5024         estimate D2E/DX2                !
 ! A108  A(27,26,28)           121.9188         estimate D2E/DX2                !
 ! A109  A(26,27,62)           109.1704         estimate D2E/DX2                !
 ! A110  A(26,27,63)           109.1537         estimate D2E/DX2                !
 ! A111  A(26,27,64)           111.4865         estimate D2E/DX2                !
 ! A112  A(62,27,63)           109.7442         estimate D2E/DX2                !
 ! A113  A(62,27,64)           109.1749         estimate D2E/DX2                !
 ! A114  A(63,27,64)           108.0913         estimate D2E/DX2                !
 ! D1    D(29,1,2,3)           -48.1239         estimate D2E/DX2                !
 ! D2    D(29,1,2,32)          156.9733         estimate D2E/DX2                !
 ! D3    D(30,1,2,3)          -168.4705         estimate D2E/DX2                !
 ! D4    D(30,1,2,32)           36.6267         estimate D2E/DX2                !
 ! D5    D(31,1,2,3)            71.8942         estimate D2E/DX2                !
 ! D6    D(31,1,2,32)          -83.0085         estimate D2E/DX2                !
 ! D7    D(1,2,3,4)              9.5536         estimate D2E/DX2                !
 ! D8    D(1,2,3,5)           -177.6777         estimate D2E/DX2                !
 ! D9    D(32,2,3,4)           164.0126         estimate D2E/DX2                !
 ! D10   D(32,2,3,5)           -23.2187         estimate D2E/DX2                !
 ! D11   D(2,3,5,6)            -79.6885         estimate D2E/DX2                !
 ! D12   D(2,3,5,7)             40.5704         estimate D2E/DX2                !
 ! D13   D(2,3,5,25)           165.6242         estimate D2E/DX2                !
 ! D14   D(4,3,5,6)             93.0872         estimate D2E/DX2                !
 ! D15   D(4,3,5,7)           -146.654          estimate D2E/DX2                !
 ! D16   D(4,3,5,25)           -21.6002         estimate D2E/DX2                !
 ! D17   D(3,5,6,33)          -167.1907         estimate D2E/DX2                !
 ! D18   D(3,5,6,34)           -48.2588         estimate D2E/DX2                !
 ! D19   D(3,5,6,35)            70.7864         estimate D2E/DX2                !
 ! D20   D(7,5,6,33)            71.2486         estimate D2E/DX2                !
 ! D21   D(7,5,6,34)          -169.8196         estimate D2E/DX2                !
 ! D22   D(7,5,6,35)           -50.7743         estimate D2E/DX2                !
 ! D23   D(25,5,6,33)          -54.4738         estimate D2E/DX2                !
 ! D24   D(25,5,6,34)           64.4581         estimate D2E/DX2                !
 ! D25   D(25,5,6,35)         -176.4967         estimate D2E/DX2                !
 ! D26   D(3,5,7,8)            159.9247         estimate D2E/DX2                !
 ! D27   D(3,5,7,36)           -76.2399         estimate D2E/DX2                !
 ! D28   D(3,5,7,37)            37.3389         estimate D2E/DX2                !
 ! D29   D(6,5,7,8)            -83.3169         estimate D2E/DX2                !
 ! D30   D(6,5,7,36)            40.5184         estimate D2E/DX2                !
 ! D31   D(6,5,7,37)           154.0973         estimate D2E/DX2                !
 ! D32   D(25,5,7,8)            39.392          estimate D2E/DX2                !
 ! D33   D(25,5,7,36)          163.2274         estimate D2E/DX2                !
 ! D34   D(25,5,7,37)          -83.1938         estimate D2E/DX2                !
 ! D35   D(3,5,25,26)          -70.9673         estimate D2E/DX2                !
 ! D36   D(3,5,25,61)           69.0513         estimate D2E/DX2                !
 ! D37   D(6,5,25,26)          177.0918         estimate D2E/DX2                !
 ! D38   D(6,5,25,61)          -42.8897         estimate D2E/DX2                !
 ! D39   D(7,5,25,26)           53.2878         estimate D2E/DX2                !
 ! D40   D(7,5,25,61)         -166.6937         estimate D2E/DX2                !
 ! D41   D(5,7,8,9)             59.1138         estimate D2E/DX2                !
 ! D42   D(5,7,8,38)           -65.4063         estimate D2E/DX2                !
 ! D43   D(5,7,8,39)          -179.6166         estimate D2E/DX2                !
 ! D44   D(36,7,8,9)           -65.4956         estimate D2E/DX2                !
 ! D45   D(36,7,8,38)          169.9843         estimate D2E/DX2                !
 ! D46   D(36,7,8,39)           55.774          estimate D2E/DX2                !
 ! D47   D(37,7,8,9)          -177.1686         estimate D2E/DX2                !
 ! D48   D(37,7,8,38)           58.3113         estimate D2E/DX2                !
 ! D49   D(37,7,8,39)          -55.8989         estimate D2E/DX2                !
 ! D50   D(7,8,9,10)           169.6993         estimate D2E/DX2                !
 ! D51   D(7,8,9,40)           -71.9378         estimate D2E/DX2                !
 ! D52   D(7,8,9,41)            45.716          estimate D2E/DX2                !
 ! D53   D(38,8,9,10)          -65.2189         estimate D2E/DX2                !
 ! D54   D(38,8,9,40)           53.1441         estimate D2E/DX2                !
 ! D55   D(38,8,9,41)          170.7978         estimate D2E/DX2                !
 ! D56   D(39,8,9,10)           49.4857         estimate D2E/DX2                !
 ! D57   D(39,8,9,40)          167.8487         estimate D2E/DX2                !
 ! D58   D(39,8,9,41)          -74.4976         estimate D2E/DX2                !
 ! D59   D(8,9,10,11)         -112.1215         estimate D2E/DX2                !
 ! D60   D(8,9,10,42)           69.0591         estimate D2E/DX2                !
 ! D61   D(40,9,10,11)         127.8742         estimate D2E/DX2                !
 ! D62   D(40,9,10,42)         -50.9451         estimate D2E/DX2                !
 ! D63   D(41,9,10,11)          11.1719         estimate D2E/DX2                !
 ! D64   D(41,9,10,42)        -167.6475         estimate D2E/DX2                !
 ! D65   D(9,10,11,12)           2.7309         estimate D2E/DX2                !
 ! D66   D(9,10,11,43)        -179.1766         estimate D2E/DX2                !
 ! D67   D(42,10,11,12)       -178.478          estimate D2E/DX2                !
 ! D68   D(42,10,11,43)         -0.3855         estimate D2E/DX2                !
 ! D69   D(10,11,12,13)        -97.6394         estimate D2E/DX2                !
 ! D70   D(10,11,12,44)         24.0595         estimate D2E/DX2                !
 ! D71   D(10,11,12,45)        138.4183         estimate D2E/DX2                !
 ! D72   D(43,11,12,13)         84.2405         estimate D2E/DX2                !
 ! D73   D(43,11,12,44)       -154.0607         estimate D2E/DX2                !
 ! D74   D(43,11,12,45)        -39.7018         estimate D2E/DX2                !
 ! D75   D(11,12,13,14)        -61.3115         estimate D2E/DX2                !
 ! D76   D(11,12,13,46)         60.2618         estimate D2E/DX2                !
 ! D77   D(11,12,13,47)        174.2297         estimate D2E/DX2                !
 ! D78   D(44,12,13,14)        176.0182         estimate D2E/DX2                !
 ! D79   D(44,12,13,46)        -62.4086         estimate D2E/DX2                !
 ! D80   D(44,12,13,47)         51.5593         estimate D2E/DX2                !
 ! D81   D(45,12,13,14)         61.6474         estimate D2E/DX2                !
 ! D82   D(45,12,13,46)       -176.7794         estimate D2E/DX2                !
 ! D83   D(45,12,13,47)        -62.8115         estimate D2E/DX2                !
 ! D84   D(12,13,14,15)        -65.4685         estimate D2E/DX2                !
 ! D85   D(12,13,14,48)         60.2118         estimate D2E/DX2                !
 ! D86   D(12,13,14,49)        173.0216         estimate D2E/DX2                !
 ! D87   D(46,13,14,15)        172.5585         estimate D2E/DX2                !
 ! D88   D(46,13,14,48)        -61.7612         estimate D2E/DX2                !
 ! D89   D(46,13,14,49)         51.0486         estimate D2E/DX2                !
 ! D90   D(47,13,14,15)         58.5142         estimate D2E/DX2                !
 ! D91   D(47,13,14,48)       -175.8056         estimate D2E/DX2                !
 ! D92   D(47,13,14,49)        -62.9958         estimate D2E/DX2                !
 ! D93   D(13,14,15,16)        -50.5883         estimate D2E/DX2                !
 ! D94   D(13,14,15,17)         74.5706         estimate D2E/DX2                !
 ! D95   D(13,14,15,21)       -172.6995         estimate D2E/DX2                !
 ! D96   D(48,14,15,16)       -176.04           estimate D2E/DX2                !
 ! D97   D(48,14,15,17)        -50.8812         estimate D2E/DX2                !
 ! D98   D(48,14,15,21)         61.8487         estimate D2E/DX2                !
 ! D99   D(49,14,15,16)         69.8416         estimate D2E/DX2                !
 ! D100  D(49,14,15,17)       -164.9995         estimate D2E/DX2                !
 ! D101  D(49,14,15,21)        -52.2697         estimate D2E/DX2                !
 ! D102  D(14,15,16,50)        -40.6395         estimate D2E/DX2                !
 ! D103  D(14,15,16,51)       -159.3457         estimate D2E/DX2                !
 ! D104  D(14,15,16,52)         79.5698         estimate D2E/DX2                !
 ! D105  D(17,15,16,50)       -163.4584         estimate D2E/DX2                !
 ! D106  D(17,15,16,51)         77.8354         estimate D2E/DX2                !
 ! D107  D(17,15,16,52)        -43.2491         estimate D2E/DX2                !
 ! D108  D(21,15,16,50)         77.8628         estimate D2E/DX2                !
 ! D109  D(21,15,16,51)        -40.8434         estimate D2E/DX2                !
 ! D110  D(21,15,16,52)       -161.9279         estimate D2E/DX2                !
 ! D111  D(14,15,17,18)       -166.5596         estimate D2E/DX2                !
 ! D112  D(14,15,17,53)         52.843          estimate D2E/DX2                !
 ! D113  D(16,15,17,18)        -43.051          estimate D2E/DX2                !
 ! D114  D(16,15,17,53)        176.3516         estimate D2E/DX2                !
 ! D115  D(21,15,17,18)         79.8141         estimate D2E/DX2                !
 ! D116  D(21,15,17,53)        -60.7833         estimate D2E/DX2                !
 ! D117  D(14,15,21,22)        -94.4168         estimate D2E/DX2                !
 ! D118  D(14,15,21,23)         79.1214         estimate D2E/DX2                !
 ! D119  D(16,15,21,22)        144.6771         estimate D2E/DX2                !
 ! D120  D(16,15,21,23)        -41.7847         estimate D2E/DX2                !
 ! D121  D(17,15,21,22)         21.2177         estimate D2E/DX2                !
 ! D122  D(17,15,21,23)       -165.2441         estimate D2E/DX2                !
 ! D123  D(15,17,18,19)       -168.5932         estimate D2E/DX2                !
 ! D124  D(15,17,18,20)         11.1095         estimate D2E/DX2                !
 ! D125  D(53,17,18,19)        -28.0077         estimate D2E/DX2                !
 ! D126  D(53,17,18,20)        151.695          estimate D2E/DX2                !
 ! D127  D(17,18,19,54)        -20.5974         estimate D2E/DX2                !
 ! D128  D(17,18,19,55)       -139.8557         estimate D2E/DX2                !
 ! D129  D(17,18,19,56)        100.2239         estimate D2E/DX2                !
 ! D130  D(20,18,19,54)        159.6888         estimate D2E/DX2                !
 ! D131  D(20,18,19,55)         40.4306         estimate D2E/DX2                !
 ! D132  D(20,18,19,56)        -79.4899         estimate D2E/DX2                !
 ! D133  D(15,21,23,24)        177.5767         estimate D2E/DX2                !
 ! D134  D(15,21,23,57)         21.582          estimate D2E/DX2                !
 ! D135  D(22,21,23,24)         -8.901          estimate D2E/DX2                !
 ! D136  D(22,21,23,57)       -164.8957         estimate D2E/DX2                !
 ! D137  D(21,23,24,58)        167.7205         estimate D2E/DX2                !
 ! D138  D(21,23,24,59)        -72.8083         estimate D2E/DX2                !
 ! D139  D(21,23,24,60)         47.3211         estimate D2E/DX2                !
 ! D140  D(57,23,24,58)        -35.9351         estimate D2E/DX2                !
 ! D141  D(57,23,24,59)         83.5361         estimate D2E/DX2                !
 ! D142  D(57,23,24,60)       -156.3345         estimate D2E/DX2                !
 ! D143  D(5,25,26,27)         169.186          estimate D2E/DX2                !
 ! D144  D(5,25,26,28)         -10.2888         estimate D2E/DX2                !
 ! D145  D(61,25,26,27)         28.8262         estimate D2E/DX2                !
 ! D146  D(61,25,26,28)       -150.6485         estimate D2E/DX2                !
 ! D147  D(25,26,27,62)       -101.6521         estimate D2E/DX2                !
 ! D148  D(25,26,27,63)        138.3898         estimate D2E/DX2                !
 ! D149  D(25,26,27,64)         19.0489         estimate D2E/DX2                !
 ! D150  D(28,26,27,62)         77.8379         estimate D2E/DX2                !
 ! D151  D(28,26,27,63)        -42.1201         estimate D2E/DX2                !
 ! D152  D(28,26,27,64)       -161.461          estimate D2E/DX2                !
 --------------------------------------------------------------------------------
 Trust Radius=3.00D-01 FncErr=1.00D-07 GrdErr=1.00D-07
 Number of steps in this run= 339 maximum allowed number of steps= 384.
 GradGradGradGradGradGradGradGradGradGradGradGradGradGradGradGradGradGrad

 Stoichiometry    C20H36N4O4
 Framework group  C1[X(C20H36N4O4)]
 Deg. of freedom   186
 Full point group                 C1      NOp   1
 Largest Abelian subgroup         C1      NOp   1
 Largest concise Abelian subgroup C1      NOp   1
                         Standard orientation:                         
 ---------------------------------------------------------------------
 Center     Atomic      Atomic             Coordinates (Angstroms)
 Number     Number       Type             X           Y           Z
 ---------------------------------------------------------------------
      1          6           0        7.228465   -2.246871    1.914505
      2          7           0        5.979032   -1.770086    1.372964
      3          6           0        5.968359   -1.022168    0.210355
      4          8           0        6.979690   -0.888697   -0.483490
      5          6           0        4.565493   -0.500739   -0.270012
      6          6           0        3.914977   -1.713855   -0.965824
      7          6           0        3.678533   -0.002443    0.905432
      8          6           0        2.505479    0.946920    0.607023
      9          6           0        1.451052    0.404098   -0.355065
     10          6           0        0.237476    1.291558   -0.385922
     11          6           0       -0.992982    1.000719    0.065996
     12          6           0       -1.428419   -0.259375    0.759128
     13          6           0       -2.095865   -1.267052   -0.180176
     14          6           0       -3.387957   -0.811961   -0.882324
     15          6           0       -4.628177   -0.537689    0.015821
     16          6           0       -4.882467   -1.725102    0.956512
     17          7           0       -4.437299    0.742213    0.730132
     18          6           0       -5.216697    1.141430    1.795019
     19          6           0       -5.011808    2.584605    2.177465
     20          8           0       -6.011582    0.424349    2.391810
     21          6           0       -5.829179   -0.281780   -0.958120
     22          8           0       -6.150435    0.859396   -1.301343
     23          7           0       -6.415867   -1.402152   -1.516260
     24          6           0       -7.560249   -1.266355   -2.383037
     25          7           0        4.845878    0.531706   -1.286830
     26          6           0        5.377635    1.761462   -0.944625
     27          6           0        5.829225    2.572654   -2.129080
     28          8           0        5.491905    2.173249    0.204710
     29          1           0        7.826164   -2.714795    1.127462
     30          1           0        7.011957   -2.975495    2.699147
     31          1           0        7.776844   -1.399182    2.333646
     32          1           0        5.217164   -1.654166    2.026418
     33          1           0        3.029801   -1.442200   -1.544231
     34          1           0        4.612193   -2.180820   -1.673693
     35          1           0        3.629724   -2.486660   -0.243241
     36          1           0        3.272457   -0.870854    1.442558
     37          1           0        4.315394    0.505386    1.643334
     38          1           0        2.877705    1.907190    0.231965
     39          1           0        2.025325    1.174576    1.569108
     40          1           0        1.855325    0.375334   -1.372450
     41          1           0        1.187607   -0.623555   -0.086214
     42          1           0        0.391594    2.268131   -0.846732
     43          1           0       -1.761202    1.763623   -0.050633
     44          1           0       -0.568795   -0.745727    1.235682
     45          1           0       -2.093932    0.000486    1.587412
     46          1           0       -1.374007   -1.542149   -0.960574
     47          1           0       -2.287408   -2.191015    0.377244
     48          1           0       -3.173926    0.071185   -1.499697
     49          1           0       -3.646388   -1.603900   -1.600290
     50          1           0       -4.730874   -2.682008    0.443652
     51          1           0       -5.912236   -1.740590    1.330234
     52          1           0       -4.210848   -1.703916    1.821360
     53          1           0       -4.211646    1.508195    0.103195
     54          1           0       -4.054934    2.963644    1.808094
     55          1           0       -5.012433    2.669889    3.267640
     56          1           0       -5.824259    3.184738    1.759585
     57          1           0       -6.295540   -2.290880   -1.051965
     58          1           0       -7.730677   -2.222345   -2.884283
     59          1           0       -8.431803   -1.004326   -1.777940
     60          1           0       -7.382064   -0.483404   -3.125182
     61          1           0        5.235659    0.161790   -2.146077
     62          1           0        6.916041    2.503603   -2.217887
     63          1           0        5.536140    3.615792   -1.982248
     64          1           0        5.369665    2.217951   -3.056366
 ---------------------------------------------------------------------
 Rotational constants (GHZ):      0.3498864      0.0474469      0.0469446
 Standard basis: 6-31G(d) (6D, 7F)
 There are   492 symmetry adapted basis functions of A   symmetry.
 Integral buffers will be    131072 words long.
 Raffenetti 1 integral format.
 Two-electron integral symmetry is turned on.
   492 basis functions,   928 primitive gaussians,   492 cartesian basis functions
   108 alpha electrons      108 beta electrons
       nuclear repulsion energy      2653.2917209227 Hartrees.
 NAtoms=   64 NActive=   64 NUniq=   64 SFac= 7.50D-01 NAtFMM=   80 NAOKFM=F Big=T
 One-electron integrals computed using PRISM.
 NBasis=   492 RedAO= T  NBF=   492
 NBsUse=   492 1.00D-06 NBFU=   492
 Harris functional with IExCor=  205 diagonalized for initial guess.
 ExpMin= 1.61D-01 ExpMax= 5.48D+03 ExpMxC= 8.25D+02 IAcc=1 IRadAn=         1 AccDes= 0.00D+00
 HarFok:  IExCor=  205 AccDes= 0.00D+00 IRadAn=         1 IDoV= 1
 ScaDFX=  1.000000  1.000000  1.000000  1.000000
 FoFCou: FMM=F IPFlag=           0 FMFlag=      100000 FMFlg1=           1
         NFxFlg=           0 DoJE=T BraDBF=F KetDBF=T FulRan=T
         Omega=  0.000000  0.000000  1.000000  0.000000  0.000000 ICntrl=     500 IOpCl=  0
         NMat0=    1 NMatS0=    1 NMatT0=    0 NMatD0=    1 NMtDS0=    0 NMtDT0=    0
         I1Cent=           4 NGrid=           0.
 Petite list used in FoFCou.
 Initial guess orbital symmetries:
       Occupied  (A) (A) (A) (A) (A) (A) (A) (A) (A) (A) (A) (A)
                 (A) (A) (A) (A) (A) (A) (A) (A) (A) (A) (A) (A)
                 (A) (A) (A) (A) (A) (A) (A) (A) (A) (A) (A) (A)
                 (A) (A) (A) (A) (A) (A) (A) (A) (A) (A) (A) (A)
                 (A) (A) (A) (A) (A) (A) (A) (A) (A) (A) (A) (A)
                 (A) (A) (A) (A) (A) (A) (A) (A) (A) (A) (A) (A)
                 (A) (A) (A) (A) (A) (A) (A) (A) (A) (A) (A) (A)
                 (A) (A) (A) (A) (A) (A) (A) (A) (A) (A) (A) (A)
                 (A) (A) (A) (A) (A) (A) (A) (A) (A) (A) (A) (A)
       Virtual   (A) (A) (A) (A) (A) (A) (A) (A) (A) (A) (A) (A)
                 (A) (A) (A) (A) (A) (A) (A) (A) (A) (A) (A) (A)
                 (A) (A) (A) (A) (A) (A) (A) (A) (A) (A) (A) (A)
                 (A) (A) (A) (A) (A) (A) (A) (A) (A) (A) (A) (A)
                 (A) (A) (A) (A) (A) (A) (A) (A) (A) (A) (A) (A)
                 (A) (A) (A) (A) (A) (A) (A) (A) (A) (A) (A) (A)
                 (A) (A) (A) (A) (A) (A) (A) (A) (A) (A) (A) (A)
                 (A) (A) (A) (A) (A) (A) (A) (A) (A) (A) (A) (A)
                 (A) (A) (A) (A) (A) (A) (A) (A) (A) (A) (A) (A)
                 (A) (A) (A) (A) (A) (A) (A) (A) (A) (A) (A) (A)
                 (A) (A) (A) (A) (A) (A) (A) (A) (A) (A) (A) (A)
                 (A) (A) (A) (A) (A) (A) (A) (A) (A) (A) (A) (A)
                 (A) (A) (A) (A) (A) (A) (A) (A) (A) (A) (A) (A)
                 (A) (A) (A) (A) (A) (A) (A) (A) (A) (A) (A) (A)
                 (A) (A) (A) (A) (A) (A) (A) (A) (A) (A) (A) (A)
                 (A) (A) (A) (A) (A) (A) (A) (A) (A) (A) (A) (A)
                 (A) (A) (A) (A) (A) (A) (A) (A) (A) (A) (A) (A)
                 (A) (A) (A) (A) (A) (A) (A) (A) (A) (A) (A) (A)
                 (A) (A) (A) (A) (A) (A) (A) (A) (A) (A) (A) (A)
                 (A) (A) (A) (A) (A) (A) (A) (A) (A) (A) (A) (A)
                 (A) (A) (A) (A) (A) (A) (A) (A) (A) (A) (A) (A)
                 (A) (A) (A) (A) (A) (A) (A) (A) (A) (A) (A) (A)
                 (A) (A) (A) (A) (A) (A) (A) (A) (A) (A) (A) (A)
                 (A) (A) (A) (A) (A) (A) (A) (A) (A) (A) (A) (A)
                 (A) (A) (A) (A) (A) (A) (A) (A) (A) (A) (A) (A)
                 (A) (A) (A) (A) (A) (A) (A) (A) (A) (A) (A) (A)
                 (A) (A) (A) (A) (A) (A) (A) (A) (A) (A) (A) (A)
                 (A) (A) (A) (A) (A) (A) (A) (A) (A) (A) (A) (A)
                 (A) (A) (A) (A) (A) (A) (A) (A) (A) (A) (A) (A)
                 (A) (A) (A) (A) (A) (A) (A) (A) (A) (A) (A) (A)
                 (A) (A) (A) (A) (A) (A) (A) (A) (A) (A) (A) (A)
                 (A) (A) (A) (A) (A) (A) (A) (A) (A) (A) (A) (A)
 The electronic state of the initial guess is 1-A.
 Requested convergence on RMS density matrix=1.00D-08 within 128 cycles.
 Requested convergence on MAX density matrix=1.00D-06.
 Requested convergence on             energy=1.00D-06.
 No special actions if energy rises.
 Integral accuracy reduced to 1.0D-05 until final iterations.
 Initial convergence to 1.0D-05 achieved.  Increase integral accuracy.
 SCF Done:  E(RHF) =  -1295.59332896     A.U. after   14 cycles
             Convg  =    0.8647D-08             -V/T =  2.0024

 **********************************************************************

            Population analysis using the SCF density.

 **********************************************************************

 Orbital symmetries:
 BldTbl:  Degeneracy threshold= 1.00D-02
       Occupied  (A) (A) (A) (A) (A) (A) (A) (A) (A) (A) (A) (A)
                 (A) (A) (A) (A) (A) (A) (A) (A) (A) (A) (A) (A)
                 (A) (A) (A) (A) (A) (A) (A) (A) (A) (A) (A) (A)
                 (A) (A) (A) (A) (A) (A) (A) (A) (A) (A) (A) (A)
                 (A) (A) (A) (A) (A) (A) (A) (A) (A) (A) (A) (A)
                 (A) (A) (A) (A) (A) (A) (A) (A) (A) (A) (A) (A)
                 (A) (A) (A) (A) (A) (A) (A) (A) (A) (A) (A) (A)
                 (A) (A) (A) (A) (A) (A) (A) (A) (A) (A) (A) (A)
                 (A) (A) (A) (A) (A) (A) (A) (A) (A) (A) (A) (A)
       Virtual   (A) (A) (A) (A) (A) (A) (A) (A) (A) (A) (A) (A)
                 (A) (A) (A) (A) (A) (A) (A) (A) (A) (A) (A) (A)
                 (A) (A) (A) (A) (A) (A) (A) (A) (A) (A) (A) (A)
                 (A) (A) (A) (A) (A) (A) (A) (A) (A) (A) (A) (A)
                 (A) (A) (A) (A) (A) (A) (A) (A) (A) (A) (A) (A)
                 (A) (A) (A) (A) (A) (A) (A) (A) (A) (A) (A) (A)
                 (A) (A) (A) (A) (A) (A) (A) (A) (A) (A) (A) (A)
                 (A) (A) (A) (A) (A) (A) (A) (A) (A) (A) (A) (A)
                 (A) (A) (A) (A) (A) (A) (A) (A) (A) (A) (A) (A)
                 (A) (A) (A) (A) (A) (A) (A) (A) (A) (A) (A) (A)
                 (A) (A) (A) (A) (A) (A) (A) (A) (A) (A) (A) (A)
                 (A) (A) (A) (A) (A) (A) (A) (A) (A) (A) (A) (A)
                 (A) (A) (A) (A) (A) (A) (A) (A) (A) (A) (A) (A)
                 (A) (A) (A) (A) (A) (A) (A) (A) (A) (A) (A) (A)
                 (A) (A) (A) (A) (A) (A) (A) (A) (A) (A) (A) (A)
                 (A) (A) (A) (A) (A) (A) (A) (A) (A) (A) (A) (A)
                 (A) (A) (A) (A) (A) (A) (A) (A) (A) (A) (A) (A)
                 (A) (A) (A) (A) (A) (A) (A) (A) (A) (A) (A) (A)
                 (A) (A) (A) (A) (A) (A) (A) (A) (A) (A) (A) (A)
                 (A) (A) (A) (A) (A) (A) (A) (A) (A) (A) (A) (A)
                 (A) (A) (A) (A) (A) (A) (A) (A) (A) (A) (A) (A)
                 (A) (A) (A) (A) (A) (A) (A) (A) (A) (A) (A) (A)
                 (A) (A) (A) (A) (A) (A) (A) (A) (A) (A) (A) (A)
                 (A) (A) (A) (A) (A) (A) (A) (A) (A) (A) (A) (A)
                 (A) (A) (A) (A) (A) (A) (A) (A) (A) (A) (A) (A)
                 (A) (A) (A) (A) (A) (A) (A) (A) (A) (A) (A) (A)
                 (A) (A) (A) (A) (A) (A) (A) (A) (A) (A) (A) (A)
                 (A) (A) (A) (A) (A) (A) (A) (A) (A) (A) (A) (A)
                 (A) (A) (A) (A) (A) (A) (A) (A) (A) (A) (A) (A)
                 (A) (A) (A) (A) (A) (A) (A) (A) (A) (A) (A) (A)
                 (A) (A) (A) (A) (A) (A) (A) (A) (A) (A) (A) (A)
                 (A) (A) (A) (A) (A) (A) (A) (A) (A) (A) (A) (A)
 The electronic state is 1-A.
 Alpha  occ. eigenvalues --  -20.53271 -20.52989 -20.52782 -20.52394 -15.59121
 Alpha  occ. eigenvalues --  -15.58936 -15.58718 -15.58430 -11.35552 -11.35435
 Alpha  occ. eigenvalues --  -11.35391 -11.35160 -11.30079 -11.30001 -11.26042
 Alpha  occ. eigenvalues --  -11.25865 -11.24122 -11.23714 -11.23691 -11.23362
 Alpha  occ. eigenvalues --  -11.23242 -11.23111 -11.23052 -11.22874 -11.22629
 Alpha  occ. eigenvalues --  -11.22559 -11.22492 -11.22418  -1.38036  -1.38014
 Alpha  occ. eigenvalues --   -1.36909  -1.36900  -1.23189  -1.23114  -1.22732
 Alpha  occ. eigenvalues --   -1.22526  -1.10793  -1.09272  -1.07297  -1.04300
 Alpha  occ. eigenvalues --   -1.00715  -0.99169  -0.98740  -0.95766  -0.94911
 Alpha  occ. eigenvalues --   -0.94803  -0.92141  -0.87602  -0.85781  -0.81586
 Alpha  occ. eigenvalues --   -0.80073  -0.79164  -0.78976  -0.75679  -0.75391
 Alpha  occ. eigenvalues --   -0.72438  -0.72060  -0.71656  -0.67681  -0.67465
 Alpha  occ. eigenvalues --   -0.66472  -0.65528  -0.64729  -0.63530  -0.63199
 Alpha  occ. eigenvalues --   -0.62595  -0.62147  -0.61779  -0.61608  -0.61211
 Alpha  occ. eigenvalues --   -0.60595  -0.60092  -0.59272  -0.58611  -0.58034
 Alpha  occ. eigenvalues --   -0.57984  -0.57192  -0.56620  -0.56143  -0.56089
 Alpha  occ. eigenvalues --   -0.55646  -0.54993  -0.54864  -0.54255  -0.53985
 Alpha  occ. eigenvalues --   -0.53670  -0.52883  -0.52614  -0.52070  -0.50735
 Alpha  occ. eigenvalues --   -0.50497  -0.50234  -0.49733  -0.48952  -0.48864
 Alpha  occ. eigenvalues --   -0.47254  -0.47179  -0.46930  -0.45218  -0.42392
 Alpha  occ. eigenvalues --   -0.42308  -0.41610  -0.41290  -0.39176  -0.39148
 Alpha  occ. eigenvalues --   -0.38813  -0.38455  -0.34200
 Alpha virt. eigenvalues --    0.17046   0.18351   0.18572   0.19245   0.19316
 Alpha virt. eigenvalues --    0.20231   0.20412   0.21747   0.23108   0.23891
 Alpha virt. eigenvalues --    0.25285   0.25737   0.25956   0.26242   0.26378
 Alpha virt. eigenvalues --    0.26782   0.27343   0.28267   0.28582   0.29135
 Alpha virt. eigenvalues --    0.29331   0.29974   0.30682   0.30887   0.31034
 Alpha virt. eigenvalues --    0.31183   0.31478   0.32207   0.32646   0.32942
 Alpha virt. eigenvalues --    0.33204   0.33485   0.33658   0.33929   0.34544
 Alpha virt. eigenvalues --    0.35321   0.35602   0.36157   0.36768   0.37029
 Alpha virt. eigenvalues --    0.37292   0.37626   0.38004   0.38359   0.39145
 Alpha virt. eigenvalues --    0.39787   0.40479   0.41010   0.41521   0.42388
 Alpha virt. eigenvalues --    0.43220   0.43991   0.45016   0.45275   0.46511
 Alpha virt. eigenvalues --    0.47573   0.47789   0.49342   0.50271   0.50535
 Alpha virt. eigenvalues --    0.54893   0.55534   0.55892   0.58866   0.59505
 Alpha virt. eigenvalues --    0.60623   0.60836   0.62925   0.68638   0.69793
 Alpha virt. eigenvalues --    0.70846   0.71340   0.71809   0.73109   0.73940
 Alpha virt. eigenvalues --    0.74340   0.74787   0.75096   0.75771   0.76052
 Alpha virt. eigenvalues --    0.76708   0.76911   0.77111   0.77260   0.78744
 Alpha virt. eigenvalues --    0.79793   0.80079   0.80787   0.81608   0.81655
 Alpha virt. eigenvalues --    0.82907   0.83649   0.83766   0.85234   0.85765
 Alpha virt. eigenvalues --    0.86261   0.87507   0.88798   0.89176   0.90093
 Alpha virt. eigenvalues --    0.90924   0.91568   0.92486   0.92716   0.94467
 Alpha virt. eigenvalues --    0.94970   0.95234   0.96042   0.96654   0.97043
 Alpha virt. eigenvalues --    0.97705   0.98241   0.98900   0.99174   0.99670
 Alpha virt. eigenvalues --    0.99946   1.00221   1.01495   1.02369   1.03169
 Alpha virt. eigenvalues --    1.04036   1.04714   1.05576   1.06364   1.07077
 Alpha virt. eigenvalues --    1.07644   1.08990   1.09246   1.09712   1.09915
 Alpha virt. eigenvalues --    1.11207   1.11410   1.12290   1.12559   1.12748
 Alpha virt. eigenvalues --    1.13082   1.13348   1.13537   1.13971   1.14802
 Alpha virt. eigenvalues --    1.15319   1.15470   1.15770   1.16158   1.16354
 Alpha virt. eigenvalues --    1.16984   1.17724   1.18197   1.18568   1.18677
 Alpha virt. eigenvalues --    1.19030   1.19320   1.19509   1.19653   1.20401
 Alpha virt. eigenvalues --    1.20831   1.21202   1.21433   1.21552   1.22540
 Alpha virt. eigenvalues --    1.22812   1.23381   1.23656   1.24027   1.24474
 Alpha virt. eigenvalues --    1.25070   1.25868   1.26182   1.26697   1.27779
 Alpha virt. eigenvalues --    1.27933   1.28374   1.29907   1.30902   1.31514
 Alpha virt. eigenvalues --    1.32136   1.32616   1.34778   1.35374   1.35681
 Alpha virt. eigenvalues --    1.36344   1.36928   1.39543   1.39897   1.41359
 Alpha virt. eigenvalues --    1.43088   1.43718   1.44650   1.46274   1.46991
 Alpha virt. eigenvalues --    1.48869   1.49401   1.50491   1.51866   1.52310
 Alpha virt. eigenvalues --    1.53026   1.56199   1.56983   1.57464   1.60333
 Alpha virt. eigenvalues --    1.60943   1.64038   1.64734   1.67781   1.68908
 Alpha virt. eigenvalues --    1.69629   1.71254   1.71673   1.72157   1.72920
 Alpha virt. eigenvalues --    1.74230   1.75531   1.78378   1.78400   1.78888
 Alpha virt. eigenvalues --    1.80962   1.81363   1.82809   1.83762   1.86447
 Alpha virt. eigenvalues --    1.87539   1.89024   1.91095   1.93767   1.95238
 Alpha virt. eigenvalues --    1.96717   1.97335   1.97933   2.00077   2.01130
 Alpha virt. eigenvalues --    2.01882   2.03222   2.03775   2.04182   2.05954
 Alpha virt. eigenvalues --    2.07347   2.08633   2.08975   2.10053   2.10289
 Alpha virt. eigenvalues --    2.10855   2.11323   2.12709   2.14347   2.15463
 Alpha virt. eigenvalues --    2.15788   2.16183   2.16523   2.17356   2.17962
 Alpha virt. eigenvalues --    2.18370   2.20048   2.20178   2.20814   2.21044
 Alpha virt. eigenvalues --    2.22354   2.23346   2.24609   2.25651   2.25877
 Alpha virt. eigenvalues --    2.26689   2.27963   2.28807   2.29405   2.30417
 Alpha virt. eigenvalues --    2.31349   2.31584   2.32354   2.32778   2.33064
 Alpha virt. eigenvalues --    2.34385   2.34611   2.35733   2.37300   2.37958
 Alpha virt. eigenvalues --    2.38907   2.39295   2.41289   2.42244   2.43556
 Alpha virt. eigenvalues --    2.44646   2.45677   2.46068   2.46804   2.48630
 Alpha virt. eigenvalues --    2.50208   2.51555   2.53058   2.53992   2.54142
 Alpha virt. eigenvalues --    2.55616   2.57004   2.57576   2.58829   2.59819
 Alpha virt. eigenvalues --    2.60297   2.60866   2.61286   2.61637   2.62483
 Alpha virt. eigenvalues --    2.64387   2.65794   2.67060   2.68079   2.69430
 Alpha virt. eigenvalues --    2.69826   2.70949   2.71306   2.71830   2.73175
 Alpha virt. eigenvalues --    2.74253   2.75900   2.77145   2.77937   2.77982
 Alpha virt. eigenvalues --    2.79927   2.80569   2.82122   2.83272   2.85409
 Alpha virt. eigenvalues --    2.86449   2.88346   2.90447   2.91047   2.92487
 Alpha virt. eigenvalues --    2.93542   2.94984   2.95490   2.97994   2.99761
 Alpha virt. eigenvalues --    3.02371   3.03509   3.03653   3.04337   3.05449
 Alpha virt. eigenvalues --    3.07936   3.10561   3.11637   3.12216   3.13054
 Alpha virt. eigenvalues --    3.14289   3.15435   3.21230   3.25402   3.25578
 Alpha virt. eigenvalues --    3.29450   3.29774   3.37463   3.37944   3.38714
 Alpha virt. eigenvalues --    3.39040   3.41593   3.47421   3.47890   3.53483
 Alpha virt. eigenvalues --    3.54138   4.34050   4.34906   4.46942   4.47492
 Alpha virt. eigenvalues --    4.50391   4.51129   4.55387   4.56671   4.58474
 Alpha virt. eigenvalues --    4.62644   4.62884   4.63367   4.66683   4.69773
 Alpha virt. eigenvalues --    4.71164   4.72180   4.73835   4.80455   4.83590
 Alpha virt. eigenvalues --    4.84952   4.86184   4.92460   4.93234   4.95212
 Alpha virt. eigenvalues --    4.99086   5.02788   5.17577   5.18151
          Condensed to atoms (all electrons):
 Mulliken atomic charges:
              1
     1  C   -0.277634
     2  N   -0.796541
     3  C    0.797930
     4  O   -0.648263
     5  C    0.109255
     6  C   -0.496507
     7  C   -0.348828
     8  C   -0.297648
     9  C   -0.358714
    10  C   -0.164966
    11  C   -0.180815
    12  C   -0.344388
    13  C   -0.306865
    14  C   -0.324186
    15  C    0.106967
    16  C   -0.516790
    17  N   -0.793847
    18  C    0.769549
    19  C   -0.588270
    20  O   -0.622083
    21  C    0.791367
    22  O   -0.645084
    23  N   -0.795118
    24  C   -0.276874
    25  N   -0.787094
    26  C    0.774707
    27  C   -0.588474
    28  O   -0.624084
    29  H    0.206058
    30  H    0.166083
    31  H    0.178817
    32  H    0.392800
    33  H    0.192111
    34  H    0.181294
    35  H    0.179799
    36  H    0.145686
    37  H    0.213299
    38  H    0.189317
    39  H    0.168668
    40  H    0.176502
    41  H    0.161936
    42  H    0.177508
    43  H    0.162696
    44  H    0.164272
    45  H    0.189345
    46  H    0.167252
    47  H    0.162091
    48  H    0.182079
    49  H    0.179710
    50  H    0.147365
    51  H    0.222305
    52  H    0.198773
    53  H    0.397461
    54  H    0.175185
    55  H    0.208316
    56  H    0.213374
    57  H    0.392322
    58  H    0.166796
    59  H    0.177445
    60  H    0.207335
    61  H    0.391119
    62  H    0.216315
    63  H    0.207974
    64  H    0.173892
 Sum of Mulliken atomic charges =   0.00000
 Mulliken charges with hydrogens summed into heavy atoms:
              1
     1  C    0.273324
     2  N   -0.403741
     3  C    0.797930
     4  O   -0.648263
     5  C    0.109255
     6  C    0.056695
     7  C    0.010157
     8  C    0.060337
     9  C   -0.020276
    10  C    0.012541
    11  C   -0.018118
    12  C    0.009229
    13  C    0.022479
    14  C    0.037603
    15  C    0.106967
    16  C    0.051653
    17  N   -0.396386
    18  C    0.769549
    19  C    0.008605
    20  O   -0.622083
    21  C    0.791367
    22  O   -0.645084
    23  N   -0.402796
    24  C    0.274701
    25  N   -0.395976
    26  C    0.774707
    27  C    0.009708
    28  O   -0.624084
 Sum of Mulliken charges with hydrogens summed into heavy atoms =   0.00000
 DipInt: DoE/N= T F RetVal/Mat= T F Init=T NMatP=  1 IDeriv=0 Min/MaxMlt=  0  4
 Entering OneElI...
 OneElI was handed    32936476 working-precision words.
 Multipole integrals L=0 to 4 MinM= 0 MaxM= 0.
 Requested accuracy = 0.1000D-12
 PrsmSu:  NPrtUS=   1 ThrOK=F IAlg=1
 PRISM was handed    32085862 working-precision words and  9989 shell-pairs
 IPart=  0 NShTot=        9989 NBatch=          72 AvBLen=       138.7
 Electronic moments (au):
       -216.00000000         -0.04131935         -1.62734585         -0.72812318
     -19507.34534091      -1753.41593965      -1509.54027188          3.78792192
          9.01293616         -2.63056967      -1359.55084551      -1082.60759718
       -300.95356193      -3565.85973155       7549.24928406       3477.34504895
       3611.49816805       -409.09079292       -388.55977977       8639.76145449
   -2539662.21887926     -32797.82253857     -25859.81507827      23549.67709093
    -111458.39773392       -255.94616651       2149.65631887       1914.05789303
      -1064.51024518    -182730.09450404    -183425.96047040     -16872.11320861
       8810.54022037       6464.17035299       2235.14543935
 Electronic spatial extent (au):  <R**2>=          22770.3016
 DipInt: DoE/N= F T RetVal/Mat= T F Init=T NMatP=  1 IDeriv=0 Min/MaxMlt=  0  4
 Nuclear    moments (au):
        216.00000000          0.00000000          0.00000000          0.00000000
      19345.65654222       1632.65254694       1384.23947115          0.00000000
          0.00000000          0.00000000       1217.13377526       1078.52608247
        276.77837802       3490.67668012      -7777.30650358      -3607.25355440
      -3472.49798980        403.58468456        386.95752461      -8784.16469339
    2464718.70231159      26796.41053149      20706.44049242     -21909.25290623
     114135.58765357        129.39001501      -2209.99102952      -1537.77295310
       1054.47543822     171304.04652059     171539.20392837      15122.67932396
      -9100.10165263      -6658.21491322      -2248.07839878
 Total      moments (au):
          0.00000000         -0.04131935         -1.62734585         -0.72812318
       -161.68879870       -120.76339270       -125.30080074          3.78792192
          9.01293616         -2.63056967       -142.41707025         -4.08151471
        -24.17518392        -75.18305143       -228.05721951       -129.90850545
        139.00017825         -5.50610835         -1.60225516       -144.40323890
     -74943.51656767      -6001.41200708      -5153.37458585       1640.42418470
       2677.18991965       -126.55615150        -60.33471065        376.28493993
        -10.03480696     -11426.04798345     -11886.75654203      -1749.43388465
       -289.56143225       -194.04456023        -12.93295944
 Traceless Quadrup. (au):
        -25.77113465         15.15427134         10.61686331          3.78792192
          9.01293616         -2.63056967
 Charge=              0.0000 electrons
 Dipole moment (field-independent basis, Debye):
    X=             -0.1050    Y=             -4.1363    Z=             -1.8507  Tot=              4.5327
 Quadrupole moment (field-independent basis, Debye-Ang):
   XX=           -217.4770   YY=           -162.4309   ZZ=           -168.5339
   XY=              5.0949   XZ=             12.1227   YZ=             -3.5382
 Traceless Quadrupole moment (field-independent basis, Debye-Ang):
   XX=            -34.6631   YY=             20.3830   ZZ=             14.2800
   XY=              5.0949   XZ=             12.1227   YZ=             -3.5382
 Octapole moment (field-independent basis, Debye-Ang**2):
  XXX=           -101.3670  YYY=             -2.9051  ZZZ=            -17.2070  XYY=            -53.5124
  XXY=           -162.3223  XXZ=            -92.4639  XZZ=             98.9350  YZZ=             -3.9190
  YYZ=             -1.1404  XYZ=           -102.7807
 Hexadecapole moment (field-independent basis, Debye-Ang**3):
 XXXX=         -28227.3201 YYYY=          -2260.4194 ZZZZ=          -1941.0079 XXXY=            617.8624
 XXXZ=           1008.3580 YYYX=            -47.6671 YYYZ=            -22.7249 ZZZX=            141.7269
 ZZZY=             -3.7796 XXYY=          -4303.5973 XXZZ=          -4477.1222 YYZZ=           -658.9206
 XXYZ=           -109.0627 YYXZ=            -73.0865 ZZXY=             -4.8712
 N-N= 2.653291720923D+03 E-N=-8.337013458098D+03  KE= 1.292517599560D+03
 Entering OneElI...
 OneElI was handed    32450256 working-precision words.
 Calculate electrostatic properties
    NBasis =   492  MinDer = 0  MaxDer = 0
    NGrid  =    64  NMatD  =   1
 Requested accuracy = 0.1000D-12
 PrsmSu:  NPrtUS=   1 ThrOK=F IAlg=1
 PRISM was handed    31695301 working-precision words and  8505 shell-pairs
 IPart=  0 NShTot=      544320 NBatch=        8505 AvBLen=        64.0
 --------------------------------------------------------
       Center         ----      EFG at Nuclei      ----
                      3XX-RR        3YY-RR        3ZZ-RR
 --------------------------------------------------------
     1   Atom       -0.157809      0.080743      0.077066
     2   Atom       -0.336714      0.600383     -0.263668
     3   Atom        0.352312     -0.369114      0.016802
     4   Atom       -0.207092     -0.073927      0.281019
     5   Atom        0.069436     -0.056192     -0.013244
     6   Atom        0.021996     -0.030349      0.008353
     7   Atom        0.018601      0.025780     -0.044381
     8   Atom       -0.022125      0.009926      0.012199
     9   Atom       -0.001333     -0.011720      0.013053
    10   Atom        0.178827      0.034079     -0.212907
    11   Atom        0.165078      0.038064     -0.203142
    12   Atom        0.027058     -0.021894     -0.005164
    13   Atom       -0.018813      0.003895      0.014918
    14   Atom       -0.037235      0.044865     -0.007630
    15   Atom        0.081639     -0.097333      0.015694
    16   Atom        0.078437     -0.075687     -0.002750
    17   Atom        0.693524     -0.497195     -0.196329
    18   Atom       -0.219218      0.296626     -0.077408
    19   Atom        0.013962     -0.045268      0.031306
    20   Atom       -0.843148      0.662721      0.180427
    21   Atom       -0.066458      0.247170     -0.180713
    22   Atom        0.457546     -0.597211      0.139665
    23   Atom        0.210443     -0.460937      0.250494
    24   Atom       -0.127421      0.138544     -0.011123
    25   Atom        0.779041     -0.428506     -0.350535
    26   Atom       -0.476619      0.092019      0.384600
    27   Atom        0.024355      0.011946     -0.036301
    28   Atom       -0.480389      1.068144     -0.587755
    29   Atom        0.006674      0.069887     -0.076561
    30   Atom        0.120140     -0.043142     -0.076998
    31   Atom        0.028179     -0.114717      0.086538
    32   Atom       -0.148047      0.211641     -0.063595
    33   Atom       -0.145256      0.116537      0.028719
    34   Atom       -0.032403      0.065962     -0.033559
    35   Atom        0.122173     -0.070423     -0.051749
    36   Atom        0.084003     -0.131419      0.047416
    37   Atom       -0.005870      0.056757     -0.050887
    38   Atom        0.093238     -0.185890      0.092652
    39   Atom        0.057641      0.130365     -0.188006
    40   Atom        0.086318      0.144696     -0.231014
    41   Atom        0.117056     -0.241568      0.124511
    42   Atom        0.131828     -0.210988      0.079161
    43   Atom       -0.082151     -0.074116      0.156267
    44   Atom       -0.125789      0.056447      0.069342
    45   Atom       -0.012509      0.116954     -0.104445
    46   Atom       -0.046175      0.122343     -0.076168
    47   Atom        0.130048     -0.163372      0.033323
    48   Atom        0.123950     -0.137286      0.013335
    49   Atom        0.110049     -0.077281     -0.032768
    50   Atom        0.143503     -0.185840      0.042337
    51   Atom       -0.238881      0.144430      0.094451
    52   Atom       -0.018247      0.142695     -0.124448
    53   Atom        0.192768     -0.153793     -0.038975
    54   Atom       -0.187875      0.091188      0.096687
    55   Atom        0.153306      0.140499     -0.293805
    56   Atom       -0.095913      0.008261      0.087652
    57   Atom        0.188310     -0.267860      0.079551
    58   Atom        0.134542     -0.190777      0.056236
    59   Atom       -0.142918      0.132291      0.010627
    60   Atom        0.126390     -0.067384     -0.059006
    61   Atom        0.144071      0.079770     -0.223841
    62   Atom       -0.294051      0.149383      0.144668
    63   Atom        0.119728     -0.258591      0.138863
    64   Atom        0.076778      0.095232     -0.172010
 --------------------------------------------------------
                        XY            XZ            YZ
 --------------------------------------------------------
     1   Atom        0.114606     -0.151690      0.075213
     2   Atom        0.415041      0.175703      0.532007
     3   Atom       -0.180429     -0.102597     -0.300187
     4   Atom       -0.678030      0.963767     -0.792089
     5   Atom       -0.014038     -0.008056      0.193378
     6   Atom       -0.046230     -0.014850     -0.042847
     7   Atom        0.032582      0.083109      0.010593
     8   Atom        0.049443     -0.033216     -0.019218
     9   Atom        0.016892     -0.006764     -0.003239
    10   Atom       -0.012718     -0.124991     -0.150188
    11   Atom       -0.005488     -0.118837     -0.136356
    12   Atom       -0.023443     -0.025796      0.014299
    13   Atom        0.019229     -0.024436     -0.007663
    14   Atom        0.019621      0.051975     -0.012328
    15   Atom       -0.036178     -0.087731     -0.163244
    16   Atom       -0.019399     -0.007459      0.046468
    17   Atom       -0.181584      0.571863     -0.150936
    18   Atom        0.249705     -0.347956      0.112188
    19   Atom       -0.022833     -0.008225     -0.022319
    20   Atom       -0.432125     -0.247309      1.201080
    21   Atom       -0.052887      0.450757     -0.098577
    22   Atom        0.680108      1.000591      0.594793
    23   Atom       -0.167413     -0.745761      0.144821
    24   Atom        0.022418     -0.206036     -0.007082
    25   Atom       -0.354337      0.429757     -0.062318
    26   Atom        0.262571     -0.085334     -0.014837
    27   Atom       -0.009566      0.007982      0.039081
    28   Atom        0.752953     -0.413200     -0.806630
    29   Atom        0.110638      0.164151     -0.136851
    30   Atom       -0.053924      0.060662      0.219183
    31   Atom       -0.166748     -0.094206     -0.131625
    32   Atom        0.074262      0.279345     -0.015945
    33   Atom        0.093536     -0.193554      0.057898
    34   Atom        0.111588      0.178173     -0.121233
    35   Atom       -0.084976      0.074353      0.201199
    36   Atom       -0.119201      0.079706      0.165910
    37   Atom       -0.100927     -0.163179     -0.134334
    38   Atom       -0.125803      0.048701      0.134276
    39   Atom        0.040884      0.160913     -0.074805
    40   Atom        0.010385      0.150875     -0.012401
    41   Atom       -0.099248      0.025527      0.103964
    42   Atom       -0.053248      0.031192      0.174815
    43   Atom        0.224738     -0.030789      0.041801
    44   Atom        0.151201     -0.148244      0.084858
    45   Atom        0.058185      0.205144     -0.078358
    46   Atom        0.070646      0.198441     -0.079364
    47   Atom       -0.067331      0.035289      0.188698
    48   Atom       -0.062247      0.049430      0.192366
    49   Atom       -0.072219     -0.062889     -0.201828
    50   Atom        0.053642      0.028629     -0.180379
    51   Atom       -0.007973      0.134089      0.012439
    52   Atom       -0.009400     -0.216568     -0.002257
    53   Atom       -0.097241      0.107489      0.239409
    54   Atom       -0.136238      0.136541      0.045826
    55   Atom       -0.000584      0.000387     -0.037004
    56   Atom        0.182309     -0.129649      0.091256
    57   Atom        0.046492     -0.071161      0.236989
    58   Atom       -0.057153     -0.043521     -0.177287
    59   Atom        0.086037      0.187769     -0.057553
    60   Atom       -0.050418      0.039911      0.217043
    61   Atom        0.056627      0.204401     -0.173295
    62   Atom        0.026956      0.038469      0.003227
    63   Atom        0.112865      0.019524     -0.053554
    64   Atom       -0.065705     -0.157025     -0.119082
 --------------------------------------------------------


 ---------------------------------------------------------------------------------
              Nuclear Quadrupole in Principal Axis System
 ---------------------------------------------------------------------------------

       Atom             a.u.   MegaHertz   Gauss  10(-4) cm-1        Axes

              Baa    -0.2831   -37.995   -13.558   -12.674  0.8347 -0.3507  0.4247
     1 C(13)  Bbb     0.1227    16.470     5.877     5.494  0.4945  0.8166 -0.2976
              Bcc     0.1604    21.525     7.681     7.180 -0.2425  0.4584  0.8550
 
              Baa    -0.5262   -20.293    -7.241    -6.769  0.4178 -0.5092  0.7524
     2 N(14)  Bbb    -0.4787   -18.461    -6.587    -6.158  0.8510 -0.0707 -0.5204
              Bcc     1.0048    38.754    13.829    12.927  0.3182  0.8577  0.4038
 
              Baa    -0.5792   -77.729   -27.736   -25.928  0.2174  0.8562  0.4686
     3 C(13)  Bbb     0.1806    24.240     8.650     8.086  0.0155 -0.4831  0.8754
              Bcc     0.3986    53.488    19.086    17.842  0.9759 -0.1831 -0.1183
 
              Baa    -0.9640    69.756    24.891    23.268  0.8238  0.1384 -0.5497
     4 O(17)  Bbb    -0.6938    50.206    17.915    16.747  0.1906  0.8456  0.4986
              Bcc     1.6579  -119.962   -42.805   -40.015  0.5338 -0.5156  0.6703
 
              Baa    -0.2294   -30.779   -10.983   -10.267  0.0171  0.7454 -0.6663
     5 C(13)  Bbb     0.0670     8.988     3.207     2.998  0.9864  0.0962  0.1329
              Bcc     0.1624    21.791     7.776     7.269 -0.1632  0.6596  0.7337
 
              Baa    -0.0799   -10.720    -3.825    -3.576  0.4223  0.7854  0.4525
     6 C(13)  Bbb     0.0279     3.749     1.338     1.250 -0.5179 -0.2006  0.8316
              Bcc     0.0520     6.972     2.488     2.326  0.7439 -0.5855  0.3220
 
              Baa    -0.1026   -13.761    -4.910    -4.590 -0.5784  0.0798  0.8118
     7 C(13)  Bbb     0.0102     1.374     0.490     0.458 -0.3222  0.8919 -0.3173
              Bcc     0.0923    12.387     4.420     4.132  0.7494  0.4451  0.4902
 
              Baa    -0.0619    -8.311    -2.966    -2.772  0.8285 -0.5058  0.2401
     8 C(13)  Bbb    -0.0066    -0.881    -0.314    -0.294  0.1201  0.5794  0.8062
              Bcc     0.0685     9.192     3.280     3.066  0.5469  0.6391 -0.5408
 
              Baa    -0.0243    -3.255    -1.161    -1.086 -0.6003  0.7988 -0.0395
     9 C(13)  Bbb     0.0047     0.631     0.225     0.211  0.5859  0.4729  0.6581
              Bcc     0.0196     2.624     0.936     0.875 -0.5444 -0.3719  0.7519
 
              Baa    -0.3126   -41.954   -14.970   -13.994  0.2361  0.3935  0.8885
    10 C(13)  Bbb     0.0910    12.213     4.358     4.074 -0.3156  0.8958 -0.3129
              Bcc     0.2216    29.741    10.612     9.920  0.9190  0.2065 -0.3357
 
              Baa    -0.2917   -39.137   -13.965   -13.055  0.2377  0.3746  0.8962
    11 C(13)  Bbb     0.0831    11.153     3.980     3.720 -0.3481  0.8942 -0.2814
              Bcc     0.2085    27.984     9.985     9.334  0.9068  0.2451 -0.3430
 
              Baa    -0.0322    -4.324    -1.543    -1.442  0.2641  0.9337 -0.2416
    12 C(13)  Bbb    -0.0194    -2.601    -0.928    -0.867  0.5133  0.0760  0.8549
              Bcc     0.0516     6.925     2.471     2.310  0.8166 -0.3498 -0.4592
 
              Baa    -0.0366    -4.910    -1.752    -1.638  0.8672 -0.3437  0.3603
    13 C(13)  Bbb     0.0005     0.064     0.023     0.021  0.0841  0.8143  0.5744
              Bcc     0.0361     4.846     1.729     1.616 -0.4908 -0.4678  0.7350
 
              Baa    -0.0807   -10.832    -3.865    -3.613  0.7869 -0.1809 -0.5900
    14 C(13)  Bbb     0.0314     4.213     1.503     1.405  0.5806 -0.1071  0.8071
              Bcc     0.0493     6.619     2.362     2.208  0.2091  0.9777 -0.0208
 
              Baa    -0.2345   -31.462   -11.226   -10.495  0.2514  0.7678  0.5893
    15 C(13)  Bbb     0.0660     8.863     3.163     2.956  0.7739 -0.5251  0.3541
              Bcc     0.1684    22.599     8.064     7.538 -0.5813 -0.3670  0.7262
 
              Baa    -0.0994   -13.343    -4.761    -4.451  0.0803  0.9008 -0.4268
    16 C(13)  Bbb     0.0162     2.180     0.778     0.727  0.2310  0.3996  0.8871
              Bcc     0.0832    11.163     3.983     3.724  0.9696 -0.1699 -0.1760
 
              Baa    -0.5660   -21.830    -7.789    -7.282 -0.1167  0.8432  0.5248
    17 N(14)  Bbb    -0.4422   -17.053    -6.085    -5.688 -0.4496 -0.5161  0.7291
              Bcc     1.0082    38.883    13.874    12.970  0.8856 -0.1509  0.4393
 
              Baa    -0.5834   -78.289   -27.935   -26.114  0.7575 -0.2895  0.5851
    18 C(13)  Bbb     0.1833    24.598     8.777     8.205 -0.5034  0.3115  0.8059
              Bcc     0.4001    53.690    19.158    17.909  0.4156  0.9051 -0.0902
 
              Baa    -0.0593    -7.956    -2.839    -2.654  0.3137  0.9149  0.2539
    19 C(13)  Bbb     0.0217     2.915     1.040     0.972  0.9424 -0.3326  0.0342
              Bcc     0.0376     5.041     1.799     1.682 -0.1158 -0.2285  0.9666
 
              Baa    -0.9749    70.540    25.170    23.529  0.8884  0.3998 -0.2255
    20 O(17)  Bbb    -0.7652    55.369    19.757    18.469  0.4193 -0.5067  0.7533
              Bcc     1.7400  -125.909   -44.927   -41.999 -0.1869  0.7638  0.6178
 
              Baa    -0.5798   -77.805   -27.763   -25.953 -0.6563  0.0478  0.7530
    21 C(13)  Bbb     0.1775    23.815     8.498     7.944  0.4513  0.8247  0.3410
              Bcc     0.4023    53.991    19.265    18.009  0.6047 -0.5636  0.5628
 
              Baa    -0.9574    69.276    24.719    23.108 -0.2543  0.9283 -0.2713
    22 O(17)  Bbb    -0.7141    51.673    18.438    17.236 -0.6615  0.0377  0.7490
              Bcc     1.6715  -120.950   -43.158   -40.344  0.7055  0.3700  0.6045
 
              Baa    -0.5264   -20.302    -7.244    -6.772  0.6710  0.4953  0.5518
    23 N(14)  Bbb    -0.4832   -18.635    -6.650    -6.216 -0.2685  0.8559 -0.4419
              Bcc     1.0096    38.937    13.894    12.988 -0.6912  0.1483  0.7073
 
              Baa    -0.2838   -38.083   -13.589   -12.703  0.7978 -0.0323  0.6020
    24 C(13)  Bbb     0.1225    16.440     5.866     5.484 -0.3731  0.7580  0.5350
              Bcc     0.1613    21.643     7.723     7.219  0.4736  0.6515 -0.5927
 
              Baa    -0.5596   -21.581    -7.701    -7.199  0.3735  0.7513 -0.5440
    25 N(14)  Bbb    -0.4523   -17.446    -6.225    -5.819 -0.0963  0.6147  0.7828
              Bcc     1.0119    39.027    13.926    13.018  0.9226 -0.2400  0.3020
 
              Baa    -0.5850   -78.500   -28.011   -26.185  0.9302 -0.3591  0.0764
    26 C(13)  Bbb     0.1850    24.821     8.857     8.279  0.3367  0.9174  0.2121
              Bcc     0.4000    53.679    19.154    17.905 -0.1462 -0.1716  0.9743
 
              Baa    -0.0597    -8.014    -2.859    -2.673 -0.1374 -0.4883  0.8618
    27 C(13)  Bbb     0.0240     3.216     1.148     1.073  0.9023  0.2973  0.3123
              Bcc     0.0358     4.798     1.712     1.600 -0.4087  0.8205  0.3997
 
              Baa    -0.9698    70.176    25.040    23.408  0.4719  0.1682  0.8655
    28 O(17)  Bbb    -0.7567    54.751    19.537    18.263  0.8043 -0.4841 -0.3445
              Bcc     1.7265  -124.927   -44.577   -41.671  0.3611  0.8587 -0.3638
 
              Baa    -0.2903  -154.866   -55.260   -51.658 -0.5544  0.4390  0.7070
    29 H(1)   Bbb     0.1340    71.500    25.513    23.850  0.7443 -0.1186  0.6573
              Bcc     0.1562    83.366    29.747    27.808  0.3724  0.8906 -0.2610
 
              Baa    -0.2957  -157.793   -56.304   -52.634 -0.1915 -0.6663  0.7207
    30 H(1)   Bbb     0.1359    72.491    25.867    24.181  0.9793 -0.1791  0.0946
              Bcc     0.1599    85.301    30.438    28.453  0.0661  0.7239  0.6867
 
              Baa    -0.2935  -156.614   -55.884   -52.241  0.5112  0.7650  0.3917
    31 H(1)   Bbb     0.1364    72.801    25.977    24.284  0.7347 -0.6255  0.2627
              Bcc     0.1571    83.813    29.906    27.957 -0.4459 -0.1535  0.8818
 
              Baa    -0.3957  -211.122   -75.334   -70.423  0.7581 -0.1096 -0.6429
    32 H(1)   Bbb     0.1560    83.235    29.700    27.764  0.5198 -0.4940  0.6970
              Bcc     0.2397   127.887    45.633    42.658  0.3940  0.8625  0.3175
 
              Baa    -0.2995  -159.823   -57.029   -53.311  0.8124 -0.2556  0.5241
    33 H(1)   Bbb     0.1451    77.418    27.625    25.824  0.0821  0.9400  0.3311
              Bcc     0.1544    82.404    29.404    27.487 -0.5773 -0.2260  0.7847
 
              Baa    -0.2878  -153.556   -54.793   -51.221 -0.6355  0.4220  0.6466
    34 H(1)   Bbb     0.1378    73.532    26.238    24.528  0.6784  0.7051  0.2065
              Bcc     0.1500    80.024    28.555    26.693  0.3687 -0.5699  0.7344
 
              Baa    -0.2931  -156.409   -55.811   -52.172  0.2621  0.7001 -0.6642
    35 H(1)   Bbb     0.1387    74.028    26.415    24.693  0.3066  0.5922  0.7452
[...]
 **** Fit       0.007574
 **** Fit       0.009040
 **** Fit       0.010712
 **** Fit       0.012662
 **** Fit       0.015004
 **** Fit       0.017914
 **** Fit       0.005723
 **** Fit       0.006687
 **** Fit       0.007775
 **** Fit       0.008972
 **** Fit       0.010285
 **** Fit       0.011739
 **** Fit       0.013377
 **** Fit       0.015258
 **** Fit       0.017441
 **** Fit       0.019955
 **** Fit       0.005804
 **** Fit       0.006618
 **** Fit       0.007527
 **** Fit       0.008509
 **** Fit       0.009553
 **** Fit       0.010659
 **** Fit       0.011835
 **** Fit       0.013092
 **** Fit       0.014437
 **** Fit       0.015847
 **** Fit       0.017228
 **** Fit       0.005861
 **** Fit       0.006594
 **** Fit       0.007410
 **** Fit       0.008280
 **** Fit       0.009186
 **** Fit       0.010114
 **** Fit       0.011056
 **** Fit       0.012004
 **** Fit       0.012940
 **** Fit       0.013817
 **** Fit       0.014532
 **** Fit       0.014868
 **** Fit       0.005539
 **** Fit       0.006168
 **** Fit       0.006888
 **** Fit       0.007667
 **** Fit       0.008477
 **** Fit       0.009292
 **** Fit       0.010092
 **** Fit       0.010857
 **** Fit       0.011559
 **** Fit       0.012154
 **** Fit       0.012556
 **** Fit       0.012614
 **** Fit       0.012076
 **** Fit       0.005741
 **** Fit       0.006365
 **** Fit       0.007057
 **** Fit       0.007786
 **** Fit       0.008520
 **** Fit       0.009228
 **** Fit       0.009883
 **** Fit       0.010453
 **** Fit       0.010893
 **** Fit       0.011138
 **** Fit       0.011083
 **** Fit       0.010573
 **** Fit       0.009409
 **** Fit       0.005782
 **** Fit       0.006424
 **** Fit       0.007121
 **** Fit       0.007831
 **** Fit       0.008512
 **** Fit       0.009122
 **** Fit       0.009616
 **** Fit       0.009938
 **** Fit       0.010014
 **** Fit       0.009742
 **** Fit       0.008992
 **** Fit       0.007645
 **** Fit       0.005720
 **** Fit       0.006368
 **** Fit       0.007053
 **** Fit       0.007720
 **** Fit       0.008311
 **** Fit       0.008765
 **** Fit       0.009013
 **** Fit       0.008975
 **** Fit       0.008556
 **** Fit       0.007668
 **** Fit       0.006288
 **** Fit       0.005847
 **** Fit       0.006530
 **** Fit       0.007189
 **** Fit       0.007730
 **** Fit       0.008054
 **** Fit       0.008058
 **** Fit       0.007642
 **** Fit       0.006750
 **** Fit       0.005453
 **** Fit       0.005510
 **** Fit       0.006237
 **** Fit       0.006860
 **** Fit       0.007168
 **** Fit       0.006966
 **** Fit       0.006170
 **** Fit       0.005835
 **** Fit       0.006243
 **** Fit       0.005700
 **** Fit       0.005328
 **** Fit      -0.023268
 **** Fit      -0.019484
 **** Fit      -0.017730
 **** Fit      -0.017869
 **** Fit      -0.020212
 **** Fit      -0.023425
 **** Fit      -0.018966
 **** Fit      -0.015783
 **** Fit      -0.013674
 **** Fit      -0.012447
 **** Fit      -0.011950
 **** Fit      -0.012113
 **** Fit      -0.013045
 **** Fit      -0.028499
 **** Fit      -0.022657
 **** Fit      -0.018092
 **** Fit      -0.014640
 **** Fit      -0.012089
 **** Fit      -0.010256
 **** Fit      -0.008985
 **** Fit      -0.008138
 **** Fit      -0.007582
 **** Fit      -0.007192
 **** Fit      -0.006871
 **** Fit      -0.027640
 **** Fit      -0.021406
 **** Fit      -0.016732
 **** Fit      -0.013220
 **** Fit      -0.010575
 **** Fit      -0.008591
 **** Fit      -0.007115
 **** Fit      -0.006018
 **** Fit      -0.005183
 **** Fit      -0.004485
 **** Fit      -0.003779
 **** Fit      -0.002892
 **** Fit      -0.020729
 **** Fit      -0.015922
 **** Fit      -0.012343
 **** Fit      -0.009631
 **** Fit      -0.007557
 **** Fit      -0.005963
 **** Fit      -0.004733
 **** Fit      -0.003766
 **** Fit      -0.002967
 **** Fit      -0.002231
 **** Fit      -0.001431
 **** Fit      -0.000404
 **** Fit      -0.023367
 **** Fit      -0.017398
 **** Fit      -0.013097
 **** Fit      -0.009898
 **** Fit      -0.007467
 **** Fit      -0.005594
 **** Fit      -0.004137
 **** Fit      -0.002989
 **** Fit      -0.002058
 **** Fit      -0.001254
 **** Fit      -0.000475
 **** Fit       0.000402
 **** Fit      -0.026474
 **** Fit      -0.019344
 **** Fit      -0.014320
 **** Fit      -0.010634
 **** Fit      -0.007849
 **** Fit      -0.005702
 **** Fit      -0.004022
 **** Fit      -0.002692
 **** Fit      -0.001619
 **** Fit      -0.000719
 **** Fit       0.000088
 **** Fit       0.000895
 **** Fit       0.001814
 **** Fit      -0.019593
 **** Fit      -0.014366
 **** Fit      -0.010530
 **** Fit      -0.007628
 **** Fit      -0.005381
 **** Fit      -0.003613
 **** Fit      -0.002200
 **** Fit      -0.001051
 **** Fit      -0.000085
 **** Fit       0.000775
 **** Fit       0.001611
 **** Fit       0.002525
 **** Fit      -0.016299
 **** Fit      -0.011775
 **** Fit      -0.008392
 **** Fit      -0.005796
 **** Fit      -0.003763
 **** Fit      -0.002143
 **** Fit      -0.000827
 **** Fit       0.000274
 **** Fit       0.001243
 **** Fit       0.002167
 **** Fit      -0.008198
 **** Fit      -0.005482
 **** Fit      -0.003345
 **** Fit      -0.001631
 **** Fit      -0.000226
 **** Fit       0.000966
 **** Fit       0.002039
 **** Fit      -0.019995
 **** Fit      -0.021500
 **** Fit      -0.016938
 **** Fit      -0.013003
 **** Fit      -0.022985
 **** Fit      -0.019109
 **** Fit      -0.015443
 **** Fit      -0.012115
 **** Fit      -0.009136
 **** Fit      -0.006455
 **** Fit      -0.019977
 **** Fit      -0.018008
 **** Fit      -0.015473
 **** Fit      -0.012765
 **** Fit      -0.010119
 **** Fit      -0.007643
 **** Fit      -0.005360
 **** Fit      -0.003250
 **** Fit      -0.007151
 **** Fit      -0.009747
 **** Fit      -0.012065
 **** Fit      -0.013541
 **** Fit      -0.013922
 **** Fit      -0.013287
 **** Fit      -0.011912
 **** Fit      -0.010113
 **** Fit      -0.008146
 **** Fit      -0.006177
 **** Fit      -0.004288
 **** Fit      -0.002505
 **** Fit      -0.000823
 **** Fit      -0.004929
 **** Fit      -0.004838
 **** Fit      -0.006652
 **** Fit      -0.008159
 **** Fit      -0.008978
 **** Fit      -0.008967
 **** Fit      -0.008224
 **** Fit      -0.006977
 **** Fit      -0.005463
 **** Fit      -0.003859
 **** Fit      -0.002270
 **** Fit      -0.000744
 **** Fit       0.000707
 **** Fit      -0.001874
 **** Fit      -0.003166
 **** Fit      -0.002967
 **** Fit      -0.004254
 **** Fit      -0.005209
 **** Fit      -0.005573
 **** Fit      -0.005285
 **** Fit      -0.004465
 **** Fit      -0.003311
 **** Fit      -0.002003
 **** Fit      -0.000664
 **** Fit       0.000638
 **** Fit       0.001871
 **** Fit      -0.000515
 **** Fit      -0.001666
 **** Fit      -0.001465
 **** Fit      -0.002413
 **** Fit      -0.002952
 **** Fit      -0.002903
 **** Fit      -0.002301
 **** Fit      -0.001326
 **** Fit      -0.000177
 **** Fit       0.000999
 **** Fit       0.002107
 **** Fit       0.003078
 **** Fit       0.001730
 **** Fit       0.000680
 **** Fit      -0.000382
 **** Fit      -0.000265
 **** Fit      -0.000965
 **** Fit      -0.001046
 **** Fit      -0.000458
 **** Fit       0.000547
 **** Fit       0.001650
 **** Fit       0.002600
 **** Fit       0.003186
 **** Fit       0.003222
 **** Fit       0.002680
 **** Fit       0.001769
 **** Fit       0.000733
 **** Fit       0.000689
 **** Fit       0.000360
 **** Fit       0.001082
 **** Fit       0.002073
 **** Fit       0.002359
 **** Fit       0.001676
 **** Fit       0.001452
 **** Fit       0.004445
 **** Fit       0.017911
 **** Fit       0.017188
 **** Fit       0.017381
 **** Fit       0.018130
 **** Fit       0.000436
 **** Fit       0.001261
 **** Fit       0.009606
 **** Fit       0.012478
 **** Fit       0.019775
 **** Fit       0.018950
 **** Fit       0.018801
 **** Fit       0.019103
 **** Fit       0.019461
 **** Fit       0.007894
 **** Fit       0.007797
 **** Fit       0.013478
 **** Fit       0.015462
 **** Fit       0.017610
 **** Fit       0.021248
 **** Fit       0.020477
 **** Fit       0.019933
 **** Fit       0.019806
 **** Fit       0.019887
 **** Fit       0.019863
 **** Fit       0.015225
 **** Fit       0.013202
 **** Fit       0.012525
 **** Fit       0.016332
 **** Fit       0.017857
 **** Fit       0.019543
 **** Fit       0.020660
 **** Fit       0.020859
 **** Fit       0.020529
 **** Fit       0.020269
 **** Fit       0.020089
 **** Fit       0.019645
 **** Fit       0.018630
 **** Fit       0.017075
 **** Fit       0.015971
 **** Fit       0.018337
 **** Fit       0.019577
 **** Fit       0.020356
 **** Fit       0.020227
 **** Fit       0.019636
 **** Fit       0.018531
 **** Fit       0.019608
 **** Fit      -0.025953
 **** Fit      -0.020060
 **** Fit      -0.012923
 **** Fit      -0.010330
 **** Fit      -0.022076
 **** Fit      -0.016629
 **** Fit      -0.010293
 **** Fit      -0.007869
 **** Fit      -0.006108
 **** Fit      -0.004717
 **** Fit      -0.018879
 **** Fit      -0.013768
 **** Fit      -0.007945
 **** Fit      -0.005770
 **** Fit      -0.004188
 **** Fit      -0.002967
 **** Fit      -0.021888
 **** Fit      -0.015438
 **** Fit      -0.011019
 **** Fit      -0.005799
 **** Fit      -0.003880
 **** Fit      -0.002474
 **** Fit      -0.001402
 **** Fit      -0.000512
 **** Fit      -0.017419
 **** Fit      -0.012189
 **** Fit      -0.008463
 **** Fit      -0.003822
 **** Fit      -0.002118
 **** Fit      -0.000867
 **** Fit       0.000079
 **** Fit       0.000852
 **** Fit      -0.013664
 **** Fit      -0.009351
 **** Fit      -0.006158
 **** Fit      -0.001997
 **** Fit      -0.000511
 **** Fit       0.000586
 **** Fit       0.001416
 **** Fit       0.002092
 **** Fit       0.002721
 **** Fit      -0.014140
 **** Fit      -0.010053
 **** Fit      -0.006656
 **** Fit      -0.004002
 **** Fit      -0.000312
 **** Fit       0.000925
 **** Fit       0.001858
 **** Fit       0.002575
 **** Fit       0.003171
 **** Fit       0.003736
 **** Fit      -0.010503
 **** Fit      -0.008739
 **** Fit      -0.006319
 **** Fit      -0.003952
 **** Fit      -0.001926
 **** Fit       0.001253
 **** Fit       0.002287
 **** Fit       0.003087
 **** Fit       0.003724
 **** Fit       0.004290
 **** Fit       0.000617
 **** Fit      -0.002963
 **** Fit      -0.003744
 **** Fit      -0.002943
 **** Fit      -0.001521
 **** Fit      -0.000039
 **** Fit       0.002726
 **** Fit       0.003537
 **** Fit       0.004212
 **** Fit       0.004801
 **** Fit       0.005396
 **** Fit       0.009619
 **** Fit       0.004396
 **** Fit       0.001520
 **** Fit       0.000649
 **** Fit       0.000979
 **** Fit       0.001811
 **** Fit       0.004144
 **** Fit       0.004758
 **** Fit       0.005365
 **** Fit       0.006009
 **** Fit       0.011182
 **** Fit       0.007119
 **** Fit       0.004535
 **** Fit       0.003564
 **** Fit       0.003631
 **** Fit       0.005562
 **** Fit       0.006042
 **** Fit       0.006768
 **** Fit       0.009202
 **** Fit       0.006651
 **** Fit       0.005563
 **** Fit       0.007051
 **** Fit       0.007635
 **** Fit       0.007950
 **** Fit       0.008706
 **** Fit      -0.021651
 **** Fit      -0.020202
 **** Fit      -0.017817
 **** Fit      -0.014932
 **** Fit      -0.013528
 **** Fit      -0.013446
 **** Fit      -0.014733
 **** Fit      -0.018533
 **** Fit      -0.014504
 **** Fit      -0.011693
 **** Fit      -0.009826
 **** Fit      -0.008752
 **** Fit      -0.008396
 **** Fit      -0.008734
 **** Fit      -0.009802
 **** Fit      -0.011734
 **** Fit      -0.019173
 **** Fit      -0.014798
 **** Fit      -0.011509
 **** Fit      -0.009028
 **** Fit      -0.007196
 **** Fit      -0.005917
 **** Fit      -0.005131
 **** Fit      -0.004796
 **** Fit      -0.004883
 **** Fit      -0.005377
 **** Fit      -0.006278
 **** Fit      -0.007627
 **** Fit      -0.009546
 **** Fit      -0.011627
 **** Fit      -0.009019
 **** Fit      -0.006923
 **** Fit      -0.005260
 **** Fit      -0.003982
 **** Fit      -0.003054
 **** Fit      -0.002447
 **** Fit      -0.002137
 **** Fit      -0.002097
 **** Fit      -0.002297
 **** Fit      -0.002706
 **** Fit      -0.003284
 **** Fit      -0.003991
 **** Fit      -0.008772
 **** Fit      -0.006672
 **** Fit      -0.004903
 **** Fit      -0.003440
 **** Fit      -0.002262
 **** Fit      -0.001354
 **** Fit      -0.000702
 **** Fit      -0.000287
 **** Fit      -0.000087
 **** Fit      -0.000071
 **** Fit      -0.000202
 **** Fit      -0.000426
 **** Fit      -0.000675
 **** Fit      -0.000854
 **** Fit      -0.004693
 **** Fit      -0.003257
 **** Fit      -0.002011
 **** Fit      -0.000960
 **** Fit      -0.000110
 **** Fit       0.000544
 **** Fit       0.001010
 **** Fit       0.001303
 **** Fit       0.001447
 **** Fit       0.001474
 **** Fit       0.001432
 **** Fit       0.001383
 **** Fit       0.001409
 **** Fit      -0.002870
 **** Fit      -0.001758
 **** Fit      -0.000732
 **** Fit       0.000172
 **** Fit       0.000934
 **** Fit       0.001545
 **** Fit       0.002006
 **** Fit       0.002327
 **** Fit       0.002528
 **** Fit       0.002638
 **** Fit       0.002700
 **** Fit       0.002772
 **** Fit       0.002931
 **** Fit      -0.000293
 **** Fit       0.000527
 **** Fit       0.001286
 **** Fit       0.001945
 **** Fit       0.002483
 **** Fit       0.002899
 **** Fit       0.003201
 **** Fit       0.003413
 **** Fit       0.003572
 **** Fit       0.003733
 **** Fit       0.003968
 **** Fit       0.001679
 **** Fit       0.002297
 **** Fit       0.002852
 **** Fit       0.003316
 **** Fit       0.003686
 **** Fit       0.003978
 **** Fit       0.004228
 **** Fit       0.004494
 **** Fit       0.003171
 **** Fit       0.003631
 **** Fit       0.004040
 **** Fit       0.004399
 **** Fit       0.004738
 **** Fit       0.008067
 **** Fit       0.006485
 **** Fit       0.007166
 **** Fit       0.007887
 **** Fit       0.008498
 **** Fit       0.008746
 **** Fit       0.008208
 **** Fit       0.006534
 **** Fit       0.007053
 **** Fit       0.007668
 **** Fit       0.008323
 **** Fit       0.008940
 **** Fit       0.009401
 **** Fit       0.009538
 **** Fit       0.009133
 **** Fit       0.006544
 **** Fit       0.006932
 **** Fit       0.007429
 **** Fit       0.008010
 **** Fit       0.008642
 **** Fit       0.009280
 **** Fit       0.009870
 **** Fit       0.010347
 **** Fit       0.010662
 **** Fit       0.010813
 **** Fit       0.006986
 **** Fit       0.007424
 **** Fit       0.007948
 **** Fit       0.008542
 **** Fit       0.009182
 **** Fit       0.009843
 **** Fit       0.010501
 **** Fit       0.011149
 **** Fit       0.011823
 **** Fit       0.012656
 **** Fit       0.007420
 **** Fit       0.007882
 **** Fit       0.008419
 **** Fit       0.009020
 **** Fit       0.009668
 **** Fit       0.010353
 **** Fit       0.011074
 **** Fit       0.011858
 **** Fit       0.012785
 **** Fit       0.014036
 **** Fit       0.015957
 **** Fit       0.007659
 **** Fit       0.008096
 **** Fit       0.008629
 **** Fit       0.009242
 **** Fit       0.009921
 **** Fit       0.010658
 **** Fit       0.011463
 **** Fit       0.012380
 **** Fit       0.013513
 **** Fit       0.015060
 **** Fit       0.017328
 **** Fit       0.008019
 **** Fit       0.008335
 **** Fit       0.008804
 **** Fit       0.009392
 **** Fit       0.010075
 **** Fit       0.010841
 **** Fit       0.011700
 **** Fit       0.012698
 **** Fit       0.013934
 **** Fit       0.015561
 **** Fit       0.017726
 **** Fit       0.020334
 **** Fit       0.008794
 **** Fit       0.008838
 **** Fit       0.009165
 **** Fit       0.009705
 **** Fit       0.010406
 **** Fit       0.011242
 **** Fit       0.012217
 **** Fit       0.013381
 **** Fit       0.014811
 **** Fit       0.016498
 **** Fit       0.018094
 **** Fit       0.018738
 **** Fit       0.017674
 **** Fit       0.015305
 **** Fit       0.010598
 **** Fit       0.009888
 **** Fit       0.009804
 **** Fit       0.010210
 **** Fit       0.010967
 **** Fit       0.011984
 **** Fit       0.013221
 **** Fit       0.014596
 **** Fit       0.015670
 **** Fit       0.015553
 **** Fit       0.013985
 **** Fit       0.012020
 **** Fit       0.011434
 **** Fit       0.010910
 **** Fit       0.011551
 **** Fit       0.012817
 **** Fit       0.013754
 **** Fit       0.012985
 **** Fit       0.012202
 -----------------------------------------------------------------
 Leave Link  602 at Fri Nov 22 04:00:47 2019, MaxMem=   33554432 cpu:       5.6

 Test job not archived.
 1\1\GINC-MOSURA\FOpt\RHF\6-31G(d)\C20H36N4O4\MARIE\22-Nov-2019\0\\#HF/
 6-31G* SCF=tight Test Pop=MK iop(6/33=2) iop(6/42=6) opt\\remark line 
 goes here\\0,1\C,7.7137165589,1.0749751439,-2.3030681397\N,6.389358363
 2,0.8528818545,-1.7586555866\C,6.2291808668,0.4966526504,-0.4684148987
 \O,7.1492520255,0.4667472309,0.305420988\C,4.7844880115,0.2588404586,0
 .0431227438\C,4.3446132467,1.6242234123,0.6042058855\C,3.8204571198,-0
 .2418104564,-1.0639264888\C,2.5599707743,-1.0107412715,-0.6418523751\C
 ,1.5206785213,-0.2609744135,0.2037077422\C,0.2730272213,-1.0851077892,
 0.3931620701\C,-0.9631392142,-0.8127779571,0.0075830455\C,-1.460572820
 8,0.4094688888,-0.7251324472\C,-2.2170288876,1.4089689762,0.1700095418
 \C,-3.5080639833,0.9326310678,0.855894792\C,-4.7596219594,0.6574921163
 ,-0.0188082308\C,-5.0252086923,1.8243084678,-0.978583843\N,-4.55863681
 56,-0.5792651949,-0.7693740892\C,-5.5924906879,-1.1752039316,-1.435018
 2416\C,-5.3494622097,-2.6132126713,-1.8330654715\O,-6.6186391318,-0.60
 65780606,-1.6864654276\C,-5.8941573843,0.397065289,1.0023257071\O,-5.9
 099024778,-0.6384534332,1.6139255184\N,-6.7720444523,1.3920731473,1.24
 42392625\C,-7.886350351,1.1767835938,2.145435094\N,4.8572631601,-0.669
 2389136,1.163706622\C,5.4303819346,-1.9011542625,1.0116494648\C,5.8521
 408439,-2.5742830076,2.2970580938\O,5.5802697153,-2.4141043641,-0.0619
 693242\H,8.2469683671,1.7877110739,-1.6912350123\H,7.6127889569,1.4748
 27651,-3.3034686442\H,8.2903680946,0.1578364859,-2.3428281039\H,5.6492
 694639,0.6893801959,-2.3981321502\H,3.3697541731,1.5647523151,1.067035
 88\H,5.0589982954,1.9733758933,1.3419272049\H,4.3017636811,2.360348517
 6,-0.1897385599\H,3.5207753113,0.6186594756,-1.6597628364\H,4.36591354
 43,-0.9108697874,-1.7154090506\H,2.8531978314,-1.9195606095,-0.1310639
 067\H,2.0762865432,-1.3272604572,-1.5625756271\H,1.9342612697,-0.05318
 04138,1.1858320181\H,1.2897390235,0.6963971922,-0.250473262\H,0.433960
 0581,-2.0197474817,0.9091123446\H,-1.7125772817,-1.5506964774,0.249177
 0839\H,-0.6269395571,0.9375941609,-1.1732094016\H,-2.0968426676,0.0962
 503485,-1.5461346532\H,-1.5419846802,1.7164592136,0.9644608119\H,-2.42
 20526714,2.303725934,-0.4090718304\H,-3.313872268,0.0489325972,1.45441
 48802\H,-3.7940161681,1.7065361542,1.5626872035\H,-4.9994495872,2.7727
 344276,-0.4503604127\H,-5.9752463514,1.715278492,-1.4802724262\H,-4.25
 61488367,1.8489639151,-1.7390254667\H,-3.9316705436,-1.2211555958,-0.3
 386366403\H,-4.3232761159,-2.782327247,-2.1386930503\H,-6.0206880241,-
 2.8750660298,-2.6379794669\H,-5.5632081544,-3.2510790729,-0.9805517956
 \H,-6.8751737171,2.1020095887,0.5587855703\H,-8.3882746171,2.121969938
 6,2.3060255809\H,-8.5950954767,0.4597446361,1.7461063314\H,-7.52183787
 79,0.8068581022,3.0921579729\H,5.0547230529,-0.2326429767,2.0371696657
 \H,6.81460933,-2.1717413532,2.5980338534\H,5.9571077342,-3.6353059138,
 2.123658531\H,5.1423905706,-2.3999194639,3.0979253569\\Version=EM64L-G
 09RevA.02\State=1-A\HF=-1295.6191758\RMSD=7.944e-09\RMSF=1.151e-06\Dip
 ole=0.1330302,1.4952293,-0.0937284\Quadrupole=-23.7911105,11.2510389,1
 2.5400717,-2.9518552,-5.1593472,-1.8343216\PG=C01 [X(C20H36N4O4)]\\@


 SIC AS THE CAWSE OF EWERY THING IS, SIC WILBE THE EFFECT.
 -- PROVERBS AND REASONS OF THE YEAR 1585
           AS REPRINTED IN PAISLEY MAGAZINE 1828.
 Job cpu time:  0 days  2 hours 50 minutes 13.8 seconds.
 File lengths (MBytes):  RWF=    156 Int=      0 D2E=      0 Chk=     17 Scr=      1
 Normal termination of Gaussian 09 at Fri Nov 22 04:00:47 2019.
