 Entering Gaussian System, Link 0=g09
 Input=14.gau
 Output=14.log
 Initial command:
 /home/marie/Utilities//g09/l1.exe /tmp/g09/Gau-17996.inp -scrdir=/tmp/g09/
 Entering Link 1 = /home/marie/Utilities//g09/l1.exe PID=     17998.
  
 Copyright (c) 1988,1990,1992,1993,1995,1998,2003,2009, Gaussian, Inc.
                  All Rights Reserved.
  
 This is part of the Gaussian(R) 09 program.  It is based on
 the Gaussian(R) 03 system (copyright 2003, Gaussian, Inc.),
 the Gaussian(R) 98 system (copyright 1998, Gaussian, Inc.),
 the Gaussian(R) 94 system (copyright 1995, Gaussian, Inc.),
 the Gaussian 92(TM) system (copyright 1992, Gaussian, Inc.),
 the Gaussian 90(TM) system (copyright 1990, Gaussian, Inc.),
 the Gaussian 88(TM) system (copyright 1988, Gaussian, Inc.),
 the Gaussian 86(TM) system (copyright 1986, Carnegie Mellon
 University), and the Gaussian 82(TM) system (copyright 1983,
 Carnegie Mellon University). Gaussian is a federally registered
 trademark of Gaussian, Inc.
  
 This software contains proprietary and confidential information,
 including trade secrets, belonging to Gaussian, Inc.
  
 This software is provided under written license and may be
 used, copied, transmitted, or stored only in accord with that
 written license.
  
 The following legend is applicable only to US Government
 contracts under FAR:
  
                    RESTRICTED RIGHTS LEGEND
  
 Use, reproduction and disclosure by the US Government is
 subject to restrictions as set forth in subparagraphs (a)
 and (c) of the Commercial Computer Software - Restricted
 Rights clause in FAR 52.227-19.
  
 Gaussian, Inc.
 340 Quinnipiac St., Bldg. 40, Wallingford CT 06492
  
  
 ---------------------------------------------------------------
 Warning -- This program may not be used in any manner that
 competes with the business of Gaussian, Inc. or will provide
 assistance to any competitor of Gaussian, Inc.  The licensee
 of this program is prohibited from giving any competitor of
 Gaussian, Inc. access to this program.  By using this program,
 the user acknowledges that Gaussian, Inc. is engaged in the
 business of creating and licensing software in the field of
 computational chemistry and represents and warrants to the
 licensee that it is not a competitor of Gaussian, Inc. and that
 it will not use this program in any manner prohibited above.
 ---------------------------------------------------------------
  

 Cite this work as:
 Gaussian 09, Revision A.02,
 M. J. Frisch, G. W. Trucks, H. B. Schlegel, G. E. Scuseria, 
 M. A. Robb, J. R. Cheeseman, G. Scalmani, V. Barone, B. Mennucci, 
 G. A. Petersson, H. Nakatsuji, M. Caricato, X. Li, H. P. Hratchian, 
 A. F. Izmaylov, J. Bloino, G. Zheng, J. L. Sonnenberg, M. Hada, 
 M. Ehara, K. Toyota, R. Fukuda, J. Hasegawa, M. Ishida, T. Nakajima, 
 Y. Honda, O. Kitao, H. Nakai, T. Vreven, J. A. Montgomery, Jr., 
 J. E. Peralta, F. Ogliaro, M. Bearpark, J. J. Heyd, E. Brothers, 
 K. N. Kudin, V. N. Staroverov, R. Kobayashi, J. Normand, 
 K. Raghavachari, A. Rendell, J. C. Burant, S. S. Iyengar, J. Tomasi, 
 M. Cossi, N. Rega, J. M. Millam, M. Klene, J. E. Knox, J. B. Cross, 
 V. Bakken, C. Adamo, J. Jaramillo, R. Gomperts, R. E. Stratmann, 
 O. Yazyev, A. J. Austin, R. Cammi, C. Pomelli, J. W. Ochterski, 
 R. L. Martin, K. Morokuma, V. G. Zakrzewski, G. A. Voth, 
 P. Salvador, J. J. Dannenberg, S. Dapprich, A. D. Daniels, 
 O. Farkas, J. B. Foresman, J. V. Ortiz, J. Cioslowski, 
 and D. J. Fox, Gaussian, Inc., Wallingford CT, 2009.
 
 ******************************************
 Gaussian 09:  EM64L-G09RevA.02 11-Jun-2009
                22-Nov-2019 
 ******************************************
 %chk=conf14
 ------------------------------------------------------------
 #HF/6-31G* SCF=tight Test Pop=MK iop(6/33=2) iop(6/42=6) opt
 ------------------------------------------------------------
 1/18=20,19=15,38=1/1,3;
 2/9=110,12=2,17=6,18=5,40=1/2;
 3/5=1,6=6,7=1,11=9,16=1,25=1,30=1,71=1/1,2,3;
 4//1;
 5/5=2,32=2,38=5/2;
 6/7=2,8=2,9=2,10=2,15=8,20=1,28=1,33=2,42=6/1,2;
 7//1,2,3,16;
 1/18=20,19=15/3(2);
 2/9=110/2;
 99//99;
 2/9=110/2;
 3/5=1,6=6,7=1,11=9,16=1,25=1,30=1,71=1/1,2,3;
 4/5=5,16=3/1;
 5/5=2,32=2,38=5/2;
 7//1,2,3,16;
 1/18=20,19=15/3(-5);
 2/9=110/2;
 6/7=2,8=2,9=2,10=2,15=8,19=2,20=1,28=1,33=2,42=6/1,2;
 99/9=1/99;
 ---------------------
 remark line goes here
 ---------------------
 Symbolic Z-matrix:
 Charge =  0 Multiplicity = 1
 C                    -6.59     -3.012    -0.714 
 N                    -6.108    -1.94      0.122 
 C                    -5.463    -0.855    -0.442 
 O                    -5.134    -0.839    -1.631 
 C                    -5.037     0.28      0.542 
 C                    -6.157     0.627     1.548 
 C                    -3.803    -0.19      1.373 
 C                    -2.672    -0.963     0.666 
 C                    -1.811    -0.215    -0.353 
 C                    -1.167     1.023     0.202 
 C                     0.122     1.184     0.544 
 C                     1.216     0.154     0.501 
 C                     2.215     0.461    -0.62 
 C                     3.361    -0.561    -0.702 
 C                     4.7      -0.186     0.006 
 C                     4.483     0.147     1.487 
 N                     5.589    -1.377    -0.134 
 C                     6.88     -1.4       0.35 
 C                     7.506    -2.769     0.365 
 O                     7.489    -0.405     0.722 
 C                     5.301     1.045    -0.748 
 O                     5.09      2.207    -0.406 
 N                     5.93      0.724    -1.94 
 C                     6.62      1.743    -2.687 
 N                    -4.673     1.458    -0.278 
 C                    -5.606     2.275    -0.885 
 C                    -5.        3.244    -1.867 
 O                    -6.813     2.24     -0.681 
 H                    -7.466    -2.662    -1.265 
 H                    -6.864    -3.854    -0.074 
 H                    -5.813    -3.318    -1.42 
 H                    -6.56     -1.818     1.017 
 H                    -6.245    -0.125     2.339 
 H                    -5.964     1.59      2.036 
 H                    -7.141     0.673     1.07 
 H                    -3.378     0.67      1.906 
 H                    -4.162    -0.871     2.158 
 H                    -2.002    -1.34      1.452 
 H                    -3.082    -1.859     0.186 
 H                    -2.397     0.048    -1.238 
 H                    -1.05     -0.909    -0.731 
 H                    -1.819     1.888     0.318 
 H                     0.429     2.163     0.913 
 H                     1.713     0.154     1.476 
 H                     0.812    -0.855     0.373 
 H                     2.597     1.482    -0.527 
 H                     1.669     0.427    -1.573 
 H                     3.574    -0.727    -1.767 
 H                     3.005    -1.531    -0.327 
 H                     3.84      1.024     1.62 
 H                     5.425     0.384     1.992 
 H                     4.032    -0.698     2.019 
 H                     5.117    -2.272    -0.145 
 H                     7.539    -3.136     1.395 
 H                     8.522    -2.703    -0.036 
 H                     6.944    -3.477    -0.249 
 H                     6.298    -0.218    -1.977 
 H                     7.515     2.042    -2.135 
 H                     5.97      2.612    -2.824 
 H                     6.902     1.332    -3.659 
 H                    -3.861     1.317    -0.861 
 H                    -5.509     4.208    -1.782 
 H                    -5.121     2.851    -2.88 
 H                    -3.936     3.403    -1.667 
 

 GradGradGradGradGradGradGradGradGradGradGradGradGradGradGradGradGradGrad
 Berny optimization.
 Initialization pass.
                           ----------------------------
                           !    Initial Parameters    !
                           ! (Angstroms and Degrees)  !
 --------------------------                            --------------------------
 ! Name  Definition              Value          Derivative Info.                !
 --------------------------------------------------------------------------------
 ! R1    R(1,2)                  1.4424         estimate D2E/DX2                !
 ! R2    R(1,29)                 1.0925         estimate D2E/DX2                !
 ! R3    R(1,30)                 1.0925         estimate D2E/DX2                !
 ! R4    R(1,31)                 1.0935         estimate D2E/DX2                !
 ! R5    R(2,3)                  1.3825         estimate D2E/DX2                !
 ! R6    R(2,32)                 1.0101         estimate D2E/DX2                !
 ! R7    R(3,4)                  1.2338         estimate D2E/DX2                !
 ! R8    R(3,5)                  1.5614         estimate D2E/DX2                !
 ! R9    R(5,6)                  1.5449         estimate D2E/DX2                !
 ! R10   R(5,7)                  1.5602         estimate D2E/DX2                !
 ! R11   R(5,25)                 1.4807         estimate D2E/DX2                !
 ! R12   R(6,33)                 1.095          estimate D2E/DX2                !
 ! R13   R(6,34)                 1.0967         estimate D2E/DX2                !
 ! R14   R(6,35)                 1.0949         estimate D2E/DX2                !
 ! R15   R(7,8)                  1.5416         estimate D2E/DX2                !
 ! R16   R(7,36)                 1.0974         estimate D2E/DX2                !
 ! R17   R(7,37)                 1.0995         estimate D2E/DX2                !
 ! R18   R(8,9)                  1.5294         estimate D2E/DX2                !
 ! R19   R(8,38)                 1.0995         estimate D2E/DX2                !
 ! R20   R(8,39)                 1.096          estimate D2E/DX2                !
 ! R21   R(9,10)                 1.5018         estimate D2E/DX2                !
 ! R22   R(9,40)                 1.0935         estimate D2E/DX2                !
 ! R23   R(9,41)                 1.0971         estimate D2E/DX2                !
 ! R24   R(10,11)                1.3433         estimate D2E/DX2                !
 ! R25   R(10,42)                1.0894         estimate D2E/DX2                !
 ! R26   R(11,12)                1.5032         estimate D2E/DX2                !
 ! R27   R(11,43)                1.0903         estimate D2E/DX2                !
 ! R28   R(12,13)                1.5326         estimate D2E/DX2                !
 ! R29   R(12,44)                1.0944         estimate D2E/DX2                !
 ! R30   R(12,45)                1.0944         estimate D2E/DX2                !
 ! R31   R(13,14)                1.5377         estimate D2E/DX2                !
 ! R32   R(13,46)                1.0941         estimate D2E/DX2                !
 ! R33   R(13,47)                1.0989         estimate D2E/DX2                !
 ! R34   R(14,15)                1.5604         estimate D2E/DX2                !
 ! R35   R(14,48)                1.0987         estimate D2E/DX2                !
 ! R36   R(14,49)                1.0992         estimate D2E/DX2                !
 ! R37   R(15,16)                1.5334         estimate D2E/DX2                !
 ! R38   R(15,17)                1.4928         estimate D2E/DX2                !
 ! R39   R(15,21)                1.5637         estimate D2E/DX2                !
 ! R40   R(16,50)                1.0956         estimate D2E/DX2                !
 ! R41   R(16,51)                1.0948         estimate D2E/DX2                !
 ! R42   R(16,52)                1.0957         estimate D2E/DX2                !
 ! R43   R(17,18)                1.3789         estimate D2E/DX2                !
 ! R44   R(17,53)                1.0119         estimate D2E/DX2                !
 ! R45   R(18,19)                1.5054         estimate D2E/DX2                !
 ! R46   R(18,20)                1.2245         estimate D2E/DX2                !
 ! R47   R(19,54)                1.0939         estimate D2E/DX2                !
 ! R48   R(19,55)                1.0943         estimate D2E/DX2                !
 ! R49   R(19,56)                1.0928         estimate D2E/DX2                !
 ! R50   R(21,22)                1.2295         estimate D2E/DX2                !
 ! R51   R(21,23)                1.3855         estimate D2E/DX2                !
 ! R52   R(23,24)                1.4396         estimate D2E/DX2                !
 ! R53   R(23,57)                1.012          estimate D2E/DX2                !
 ! R54   R(24,58)                1.0932         estimate D2E/DX2                !
 ! R55   R(24,59)                1.0938         estimate D2E/DX2                !
 ! R56   R(24,60)                1.0924         estimate D2E/DX2                !
 ! R57   R(25,26)                1.3807         estimate D2E/DX2                !
 ! R58   R(25,61)                1.0095         estimate D2E/DX2                !
 ! R59   R(26,27)                1.5068         estimate D2E/DX2                !
 ! R60   R(26,28)                1.2246         estimate D2E/DX2                !
 ! R61   R(27,62)                1.0934         estimate D2E/DX2                !
 ! R62   R(27,63)                1.0933         estimate D2E/DX2                !
 ! R63   R(27,64)                1.0942         estimate D2E/DX2                !
 ! A1    A(2,1,29)             108.7948         estimate D2E/DX2                !
 ! A2    A(2,1,30)             108.4859         estimate D2E/DX2                !
 ! A3    A(2,1,31)             110.1655         estimate D2E/DX2                !
 ! A4    A(29,1,30)            109.9538         estimate D2E/DX2                !
 ! A5    A(29,1,31)            109.4983         estimate D2E/DX2                !
 ! A6    A(30,1,31)            109.9218         estimate D2E/DX2                !
 ! A7    A(1,2,3)              120.1814         estimate D2E/DX2                !
 ! A8    A(1,2,32)             116.9884         estimate D2E/DX2                !
 ! A9    A(3,2,32)             118.3898         estimate D2E/DX2                !
 ! A10   A(2,3,4)              121.8522         estimate D2E/DX2                !
 ! A11   A(2,3,5)              116.1471         estimate D2E/DX2                !
 ! A12   A(4,3,5)              121.6784         estimate D2E/DX2                !
 ! A13   A(3,5,6)              112.0763         estimate D2E/DX2                !
 ! A14   A(3,5,7)              109.4191         estimate D2E/DX2                !
 ! A15   A(3,5,25)             107.2398         estimate D2E/DX2                !
 ! A16   A(6,5,7)              107.1106         estimate D2E/DX2                !
 ! A17   A(6,5,25)             111.1077         estimate D2E/DX2                !
 ! A18   A(7,5,25)             109.888          estimate D2E/DX2                !
 ! A19   A(5,6,33)             111.9876         estimate D2E/DX2                !
 ! A20   A(5,6,34)             111.0627         estimate D2E/DX2                !
 ! A21   A(5,6,35)             112.1276         estimate D2E/DX2                !
 ! A22   A(33,6,34)            107.2026         estimate D2E/DX2                !
 ! A23   A(33,6,35)            105.7833         estimate D2E/DX2                !
 ! A24   A(34,6,35)            108.3922         estimate D2E/DX2                !
 ! A25   A(5,7,8)              119.1466         estimate D2E/DX2                !
 ! A26   A(5,7,36)             109.2033         estimate D2E/DX2                !
 ! A27   A(5,7,37)             107.9757         estimate D2E/DX2                !
 ! A28   A(8,7,36)             109.3639         estimate D2E/DX2                !
 ! A29   A(8,7,37)             104.8573         estimate D2E/DX2                !
 ! A30   A(36,7,37)            105.3711         estimate D2E/DX2                !
 ! A31   A(7,8,9)              118.2509         estimate D2E/DX2                !
 ! A32   A(7,8,38)             106.9271         estimate D2E/DX2                !
 ! A33   A(7,8,39)             109.6524         estimate D2E/DX2                !
 ! A34   A(9,8,38)             107.5144         estimate D2E/DX2                !
 ! A35   A(9,8,39)             108.5789         estimate D2E/DX2                !
 ! A36   A(38,8,39)            105.113          estimate D2E/DX2                !
 ! A37   A(8,9,10)             113.4747         estimate D2E/DX2                !
 ! A38   A(8,9,40)             110.8031         estimate D2E/DX2                !
 ! A39   A(8,9,41)             108.0996         estimate D2E/DX2                !
 ! A40   A(10,9,40)            109.3065         estimate D2E/DX2                !
 ! A41   A(10,9,41)            110.5692         estimate D2E/DX2                !
 ! A42   A(40,9,41)            104.1823         estimate D2E/DX2                !
 ! A43   A(9,10,11)            127.1844         estimate D2E/DX2                !
 ! A44   A(9,10,42)            115.9284         estimate D2E/DX2                !
 ! A45   A(11,10,42)           116.8742         estimate D2E/DX2                !
 ! A46   A(10,11,12)           127.5148         estimate D2E/DX2                !
 ! A47   A(10,11,43)           117.6432         estimate D2E/DX2                !
 ! A48   A(12,11,43)           114.8346         estimate D2E/DX2                !
 ! A49   A(11,12,13)           110.9811         estimate D2E/DX2                !
 ! A50   A(11,12,44)           107.7602         estimate D2E/DX2                !
 ! A51   A(11,12,45)           111.4954         estimate D2E/DX2                !
 ! A52   A(13,12,44)           110.832          estimate D2E/DX2                !
 ! A53   A(13,12,45)           109.8624         estimate D2E/DX2                !
 ! A54   A(44,12,45)           105.7746         estimate D2E/DX2                !
 ! A55   A(12,13,14)           113.0578         estimate D2E/DX2                !
 ! A56   A(12,13,46)           110.6308         estimate D2E/DX2                !
 ! A57   A(12,13,47)           107.7141         estimate D2E/DX2                !
 ! A58   A(14,13,46)           111.3802         estimate D2E/DX2                !
 ! A59   A(14,13,47)           107.6678         estimate D2E/DX2                !
 ! A60   A(46,13,47)           106.0265         estimate D2E/DX2                !
 ! A61   A(13,14,15)           117.104          estimate D2E/DX2                !
 ! A62   A(13,14,48)           107.2528         estimate D2E/DX2                !
 ! A63   A(13,14,49)           109.0832         estimate D2E/DX2                !
 ! A64   A(15,14,48)           108.0451         estimate D2E/DX2                !
 ! A65   A(15,14,49)           109.5848         estimate D2E/DX2                !
 ! A66   A(48,14,49)           105.0789         estimate D2E/DX2                !
 ! A67   A(14,15,16)           111.6527         estimate D2E/DX2                !
 ! A68   A(14,15,17)           106.066          estimate D2E/DX2                !
 ! A69   A(14,15,21)           107.4712         estimate D2E/DX2                !
 ! A70   A(16,15,17)           110.3722         estimate D2E/DX2                !
 ! A71   A(16,15,21)           110.4352         estimate D2E/DX2                !
 ! A72   A(17,15,21)           110.731          estimate D2E/DX2                !
 ! A73   A(15,16,50)           111.9715         estimate D2E/DX2                !
 ! A74   A(15,16,51)           111.7624         estimate D2E/DX2                !
 ! A75   A(15,16,52)           111.0836         estimate D2E/DX2                !
 ! A76   A(50,16,51)           106.0044         estimate D2E/DX2                !
 ! A77   A(50,16,52)           108.4716         estimate D2E/DX2                !
 ! A78   A(51,16,52)           107.2872         estimate D2E/DX2                !
 ! A79   A(15,17,18)           122.5438         estimate D2E/DX2                !
 ! A80   A(15,17,53)           115.3981         estimate D2E/DX2                !
 ! A81   A(18,17,53)           115.1993         estimate D2E/DX2                !
 ! A82   A(17,18,19)           114.078          estimate D2E/DX2                !
 ! A83   A(17,18,20)           123.9679         estimate D2E/DX2                !
 ! A84   A(19,18,20)           121.9464         estimate D2E/DX2                !
 ! A85   A(18,19,54)           109.0877         estimate D2E/DX2                !
 ! A86   A(18,19,55)           109.1227         estimate D2E/DX2                !
 ! A87   A(18,19,56)           111.6993         estimate D2E/DX2                !
 ! A88   A(54,19,55)           109.7105         estimate D2E/DX2                !
 ! A89   A(54,19,56)           109.0988         estimate D2E/DX2                !
 ! A90   A(55,19,56)           108.1006         estimate D2E/DX2                !
 ! A91   A(15,21,22)           122.9515         estimate D2E/DX2                !
 ! A92   A(15,21,23)           114.0138         estimate D2E/DX2                !
 ! A93   A(22,21,23)           122.4246         estimate D2E/DX2                !
 ! A94   A(21,23,24)           120.0021         estimate D2E/DX2                !
 ! A95   A(21,23,57)           114.3435         estimate D2E/DX2                !
 ! A96   A(24,23,57)           117.7495         estimate D2E/DX2                !
 ! A97   A(23,24,58)           108.904          estimate D2E/DX2                !
 ! A98   A(23,24,59)           110.0303         estimate D2E/DX2                !
 ! A99   A(23,24,60)           108.6105         estimate D2E/DX2                !
 ! A100  A(58,24,59)           109.4179         estimate D2E/DX2                !
 ! A101  A(58,24,60)           109.929          estimate D2E/DX2                !
 ! A102  A(59,24,60)           109.9306         estimate D2E/DX2                !
 ! A103  A(5,25,26)            123.2355         estimate D2E/DX2                !
 ! A104  A(5,25,61)            113.9804         estimate D2E/DX2                !
 ! A105  A(26,25,61)           111.8564         estimate D2E/DX2                !
 ! A106  A(25,26,27)           113.2822         estimate D2E/DX2                !
 ! A107  A(25,26,28)           125.16           estimate D2E/DX2                !
 ! A108  A(27,26,28)           121.5556         estimate D2E/DX2                !
 ! A109  A(26,27,62)           109.2127         estimate D2E/DX2                !
 ! A110  A(26,27,63)           109.1578         estimate D2E/DX2                !
 ! A111  A(26,27,64)           111.4311         estimate D2E/DX2                !
 ! A112  A(62,27,63)           109.7201         estimate D2E/DX2                !
 ! A113  A(62,27,64)           108.0788         estimate D2E/DX2                !
 ! A114  A(63,27,64)           109.2204         estimate D2E/DX2                !
 ! D1    D(29,1,2,3)           -72.5748         estimate D2E/DX2                !
 ! D2    D(29,1,2,32)           83.4092         estimate D2E/DX2                !
 ! D3    D(30,1,2,3)           167.8297         estimate D2E/DX2                !
 ! D4    D(30,1,2,32)          -36.1864         estimate D2E/DX2                !
 ! D5    D(31,1,2,3)            47.4641         estimate D2E/DX2                !
 ! D6    D(31,1,2,32)         -156.5519         estimate D2E/DX2                !
 ! D7    D(1,2,3,4)             -9.0467         estimate D2E/DX2                !
 ! D8    D(1,2,3,5)            177.3711         estimate D2E/DX2                !
 ! D9    D(32,2,3,4)          -164.7005         estimate D2E/DX2                !
 ! D10   D(32,2,3,5)            21.7173         estimate D2E/DX2                !
 ! D11   D(2,3,5,6)            -44.5104         estimate D2E/DX2                !
 ! D12   D(2,3,5,7)             74.1504         estimate D2E/DX2                !
 ! D13   D(2,3,5,25)          -166.7018         estimate D2E/DX2                !
 ! D14   D(4,3,5,6)            141.8953         estimate D2E/DX2                !
 ! D15   D(4,3,5,7)            -99.4439         estimate D2E/DX2                !
 ! D16   D(4,3,5,25)            19.7039         estimate D2E/DX2                !
 ! D17   D(3,5,6,33)            76.0868         estimate D2E/DX2                !
 ! D18   D(3,5,6,34)          -164.0925         estimate D2E/DX2                !
 ! D19   D(3,5,6,35)           -42.6536         estimate D2E/DX2                !
 ! D20   D(7,5,6,33)           -43.9296         estimate D2E/DX2                !
 ! D21   D(7,5,6,34)            75.8911         estimate D2E/DX2                !
 ! D22   D(7,5,6,35)          -162.67           estimate D2E/DX2                !
 ! D23   D(25,5,6,33)         -163.9541         estimate D2E/DX2                !
 ! D24   D(25,5,6,34)          -44.1334         estimate D2E/DX2                !
 ! D25   D(25,5,6,35)           77.3055         estimate D2E/DX2                !
 ! D26   D(3,5,7,8)             41.6706         estimate D2E/DX2                !
 ! D27   D(3,5,7,36)           168.2717         estimate D2E/DX2                !
 ! D28   D(3,5,7,37)           -77.6428         estimate D2E/DX2                !
 ! D29   D(6,5,7,8)            163.3719         estimate D2E/DX2                !
 ! D30   D(6,5,7,36)           -70.027          estimate D2E/DX2                !
 ! D31   D(6,5,7,37)            44.0584         estimate D2E/DX2                !
 ! D32   D(25,5,7,8)           -75.8269         estimate D2E/DX2                !
 ! D33   D(25,5,7,36)           50.7743         estimate D2E/DX2                !
 ! D34   D(25,5,7,37)          164.8597         estimate D2E/DX2                !
 ! D35   D(3,5,25,26)           75.9657         estimate D2E/DX2                !
 ! D36   D(3,5,25,61)          -65.1676         estimate D2E/DX2                !
 ! D37   D(6,5,25,26)          -46.8276         estimate D2E/DX2                !
 ! D38   D(6,5,25,61)          172.039          estimate D2E/DX2                !
 ! D39   D(7,5,25,26)         -165.1887         estimate D2E/DX2                !
 ! D40   D(7,5,25,61)           53.678          estimate D2E/DX2                !
 ! D41   D(5,7,8,9)             68.0581         estimate D2E/DX2                !
 ! D42   D(5,7,8,38)          -170.5663         estimate D2E/DX2                !
 ! D43   D(5,7,8,39)           -57.1086         estimate D2E/DX2                !
 ! D44   D(36,7,8,9)           -58.4673         estimate D2E/DX2                !
 ! D45   D(36,7,8,38)           62.9083         estimate D2E/DX2                !
 ! D46   D(36,7,8,39)          176.366          estimate D2E/DX2                !
 ! D47   D(37,7,8,9)          -171.0436         estimate D2E/DX2                !
 ! D48   D(37,7,8,38)          -49.668          estimate D2E/DX2                !
 ! D49   D(37,7,8,39)           63.7896         estimate D2E/DX2                !
 ! D50   D(7,8,9,10)            55.5745         estimate D2E/DX2                !
 ! D51   D(7,8,9,40)           -67.833          estimate D2E/DX2                !
 ! D52   D(7,8,9,41)           178.5941         estimate D2E/DX2                !
 ! D53   D(38,8,9,10)          -65.5008         estimate D2E/DX2                !
 ! D54   D(38,8,9,40)          171.0917         estimate D2E/DX2                !
 ! D55   D(38,8,9,41)           57.5188         estimate D2E/DX2                !
 ! D56   D(39,8,9,10)         -178.7357         estimate D2E/DX2                !
 ! D57   D(39,8,9,40)           57.8567         estimate D2E/DX2                !
 ! D58   D(39,8,9,41)          -55.7161         estimate D2E/DX2                !
 ! D59   D(8,9,10,11)          104.9436         estimate D2E/DX2                !
 ! D60   D(8,9,10,42)          -76.4183         estimate D2E/DX2                !
 ! D61   D(40,9,10,11)        -130.8332         estimate D2E/DX2                !
 ! D62   D(40,9,10,42)          47.8049         estimate D2E/DX2                !
 ! D63   D(41,9,10,11)         -16.707          estimate D2E/DX2                !
 ! D64   D(41,9,10,42)         161.9311         estimate D2E/DX2                !
 ! D65   D(9,10,11,12)          -2.4046         estimate D2E/DX2                !
 ! D66   D(9,10,11,43)         178.6448         estimate D2E/DX2                !
 ! D67   D(42,10,11,12)        178.9685         estimate D2E/DX2                !
 ! D68   D(42,10,11,43)          0.0178         estimate D2E/DX2                !
 ! D69   D(10,11,12,13)        109.3367         estimate D2E/DX2                !
 ! D70   D(10,11,12,44)       -129.1449         estimate D2E/DX2                !
 ! D71   D(10,11,12,45)        -13.4909         estimate D2E/DX2                !
 ! D72   D(43,11,12,13)        -71.6876         estimate D2E/DX2                !
 ! D73   D(43,11,12,44)         49.8308         estimate D2E/DX2                !
 ! D74   D(43,11,12,45)        165.4848         estimate D2E/DX2                !
 ! D75   D(11,12,13,14)        179.6806         estimate D2E/DX2                !
 ! D76   D(11,12,13,46)         53.9753         estimate D2E/DX2                !
 ! D77   D(11,12,13,47)        -61.4883         estimate D2E/DX2                !
 ! D78   D(44,12,13,14)         59.9804         estimate D2E/DX2                !
 ! D79   D(44,12,13,46)        -65.7249         estimate D2E/DX2                !
 ! D80   D(44,12,13,47)        178.8115         estimate D2E/DX2                !
 ! D81   D(45,12,13,14)        -56.5533         estimate D2E/DX2                !
 ! D82   D(45,12,13,46)        177.7414         estimate D2E/DX2                !
 ! D83   D(45,12,13,47)         62.2778         estimate D2E/DX2                !
 ! D84   D(12,13,14,15)        -96.8133         estimate D2E/DX2                !
 ! D85   D(12,13,14,48)        141.6311         estimate D2E/DX2                !
 ! D86   D(12,13,14,49)         28.3223         estimate D2E/DX2                !
 ! D87   D(46,13,14,15)         28.4886         estimate D2E/DX2                !
 ! D88   D(46,13,14,48)        -93.067          estimate D2E/DX2                !
 ! D89   D(46,13,14,49)        153.6243         estimate D2E/DX2                !
 ! D90   D(47,13,14,15)        144.3288         estimate D2E/DX2                !
 ! D91   D(47,13,14,48)         22.7732         estimate D2E/DX2                !
 ! D92   D(47,13,14,49)        -90.5356         estimate D2E/DX2                !
 ! D93   D(13,14,15,16)         55.4339         estimate D2E/DX2                !
 ! D94   D(13,14,15,17)        175.7055         estimate D2E/DX2                !
 ! D95   D(13,14,15,21)        -65.8161         estimate D2E/DX2                !
 ! D96   D(48,14,15,16)        176.5757         estimate D2E/DX2                !
 ! D97   D(48,14,15,17)        -63.1527         estimate D2E/DX2                !
 ! D98   D(48,14,15,21)         55.3257         estimate D2E/DX2                !
 ! D99   D(49,14,15,16)        -69.4506         estimate D2E/DX2                !
 ! D100  D(49,14,15,17)         50.821          estimate D2E/DX2                !
 ! D101  D(49,14,15,21)        169.2994         estimate D2E/DX2                !
 ! D102  D(14,15,16,50)        -62.782          estimate D2E/DX2                !
 ! D103  D(14,15,16,51)        178.4555         estimate D2E/DX2                !
 ! D104  D(14,15,16,52)         58.6648         estimate D2E/DX2                !
 ! D105  D(17,15,16,50)        179.5051         estimate D2E/DX2                !
 ! D106  D(17,15,16,51)         60.7426         estimate D2E/DX2                !
 ! D107  D(17,15,16,52)        -59.0481         estimate D2E/DX2                !
 ! D108  D(21,15,16,50)         56.7316         estimate D2E/DX2                !
 ! D109  D(21,15,16,51)        -62.0309         estimate D2E/DX2                !
 ! D110  D(21,15,16,52)        178.1783         estimate D2E/DX2                !
 ! D111  D(14,15,17,18)        178.4841         estimate D2E/DX2                !
 ! D112  D(14,15,17,53)        -31.9626         estimate D2E/DX2                !
 ! D113  D(16,15,17,18)        -60.4154         estimate D2E/DX2                !
 ! D114  D(16,15,17,53)         89.1378         estimate D2E/DX2                !
 ! D115  D(21,15,17,18)         62.1849         estimate D2E/DX2                !
 ! D116  D(21,15,17,53)       -148.2618         estimate D2E/DX2                !
 ! D117  D(14,15,21,22)         93.0631         estimate D2E/DX2                !
 ! D118  D(14,15,21,23)        -78.1685         estimate D2E/DX2                !
 ! D119  D(16,15,21,22)        -28.9474         estimate D2E/DX2                !
 ! D120  D(16,15,21,23)        159.821          estimate D2E/DX2                !
 ! D121  D(17,15,21,22)       -151.5111         estimate D2E/DX2                !
 ! D122  D(17,15,21,23)         37.2573         estimate D2E/DX2                !
 ! D123  D(15,17,18,19)        167.9875         estimate D2E/DX2                !
 ! D124  D(15,17,18,20)        -13.0069         estimate D2E/DX2                !
 ! D125  D(53,17,18,19)         18.3791         estimate D2E/DX2                !
 ! D126  D(53,17,18,20)       -162.6153         estimate D2E/DX2                !
 ! D127  D(17,18,19,54)       -105.5231         estimate D2E/DX2                !
 ! D128  D(17,18,19,55)        134.6281         estimate D2E/DX2                !
 ! D129  D(17,18,19,56)         15.1636         estimate D2E/DX2                !
 ! D130  D(20,18,19,54)         75.4489         estimate D2E/DX2                !
 ! D131  D(20,18,19,55)        -44.3999         estimate D2E/DX2                !
 ! D132  D(20,18,19,56)       -163.8645         estimate D2E/DX2                !
 ! D133  D(15,21,23,24)       -175.1116         estimate D2E/DX2                !
 ! D134  D(15,21,23,57)        -26.7531         estimate D2E/DX2                !
 ! D135  D(22,21,23,24)         13.6048         estimate D2E/DX2                !
 ! D136  D(22,21,23,57)        161.9633         estimate D2E/DX2                !
 ! D137  D(21,23,24,58)         69.4114         estimate D2E/DX2                !
 ! D138  D(21,23,24,59)        -50.5147         estimate D2E/DX2                !
 ! D139  D(21,23,24,60)       -170.8868         estimate D2E/DX2                !
 ! D140  D(57,23,24,58)        -77.9            estimate D2E/DX2                !
 ! D141  D(57,23,24,59)        162.1739         estimate D2E/DX2                !
 ! D142  D(57,23,24,60)         41.8018         estimate D2E/DX2                !
 ! D143  D(5,25,26,27)        -169.2075         estimate D2E/DX2                !
 ! D144  D(5,25,26,28)          10.2552         estimate D2E/DX2                !
 ! D145  D(61,25,26,27)        -27.3596         estimate D2E/DX2                !
 ! D146  D(61,25,26,28)        152.1032         estimate D2E/DX2                !
 ! D147  D(25,26,27,62)       -140.7776         estimate D2E/DX2                !
 ! D148  D(25,26,27,63)         99.2657         estimate D2E/DX2                !
 ! D149  D(25,26,27,64)        -21.4485         estimate D2E/DX2                !
 ! D150  D(28,26,27,62)         39.7378         estimate D2E/DX2                !
 ! D151  D(28,26,27,63)        -80.2188         estimate D2E/DX2                !
 ! D152  D(28,26,27,64)        159.067          estimate D2E/DX2                !
 --------------------------------------------------------------------------------
 Trust Radius=3.00D-01 FncErr=1.00D-07 GrdErr=1.00D-07
 Number of steps in this run= 339 maximum allowed number of steps= 384.
 GradGradGradGradGradGradGradGradGradGradGradGradGradGradGradGradGradGrad

 Stoichiometry    C20H36N4O4
 Framework group  C1[X(C20H36N4O4)]
 Deg. of freedom   186
 Full point group                 C1      NOp   1
 Largest Abelian subgroup         C1      NOp   1
 Largest concise Abelian subgroup C1      NOp   1
                         Standard orientation:                         
 ---------------------------------------------------------------------
 Center     Atomic      Atomic             Coordinates (Angstroms)
 Number     Number       Type             X           Y           Z
 ---------------------------------------------------------------------
      1          6           0        6.501828   -2.937033    1.689381
      2          7           0        6.062999   -2.206144    0.525923
      3          6           0        5.446685   -0.976896    0.668940
      4          8           0        5.105647   -0.544028    1.772813
      5          6           0        5.067405   -0.239284   -0.653947
      6          6           0        6.208539   -0.289083   -1.694226
      7          6           0        3.828105   -0.934289   -1.298402
      8          6           0        2.665687   -1.386938   -0.392626
      9          6           0        1.817949   -0.311726    0.288876
     10          6           0        1.219460    0.675906   -0.671228
     11          6           0       -0.060059    0.742869   -1.074654
     12          6           0       -1.186529   -0.180509   -0.703140
     13          6           0       -2.187249    0.519519    0.222825
     14          6           0       -3.365854   -0.381571    0.627114
     15          6           0       -4.684649   -0.238446   -0.194534
     16          6           0       -4.441369   -0.441363   -1.694860
     17          7           0       -5.612372   -1.284879    0.327685
     18          6           0       -6.898197   -1.439432   -0.145847
     19          6           0       -7.567045   -2.713129    0.297550
     20          8           0       -7.471361   -0.617782   -0.849881
     21          6           0       -5.254398    1.192082    0.077594
     22          8           0       -5.003052    2.159429   -0.638503
     23          7           0       -5.905974    1.317515    1.293843
     24          6           0       -6.571312    2.548985    1.630410
     25          7           0        4.732139    1.158046   -0.296673
     26          6           0        5.683994    2.109457    0.011897
     27          6           0        5.098510    3.372704    0.588036
     28          8           0        6.891395    1.974940   -0.142306
     29          1           0        7.382524   -2.441706    2.104714
     30          1           0        6.755859   -3.954713    1.383710
     31          1           0        5.708012   -2.960957    2.441103
     32          1           0        6.528192   -2.411499   -0.346795
     33          1           0        6.281141   -1.269427   -2.176494
     34          1           0        6.051370    0.451767   -2.487448
     35          1           0        7.188328   -0.107010   -1.240664
     36          1           0        3.436287   -0.299553   -2.103326
     37          1           0        4.173740   -1.852993   -1.793766
     38          1           0        1.992536   -1.993865   -1.014986
     39          1           0        3.041941   -2.073314    0.374601
     40          1           0        2.402477    0.224476    1.041608
     41          1           0        1.031348   -0.813120    0.866373
     42          1           0        1.899733    1.430815   -1.063817
     43          1           0       -0.331930    1.542667   -1.764045
     44          1           0       -1.672813   -0.503177   -1.628909
     45          1           0       -0.816082   -1.093948   -0.227663
     46          1           0       -2.535703    1.455695   -0.223458
     47          1           0       -1.652833    0.801427    1.140653
     48          1           0       -3.595394   -0.165221    1.679565
     49          1           0       -3.036760   -1.430301    0.615949
     50          1           0       -3.769529    0.319190   -2.107723
     51          1           0       -5.369930   -0.368222   -2.270171
     52          1           0       -4.011688   -1.429295   -1.894399
     53          1           0       -5.169100   -2.133371    0.655557
     54          1           0       -7.600623   -3.411257   -0.543977
     55          1           0       -8.584680   -2.486682    0.630048
     56          1           0       -7.034356   -3.180896    1.129139
     57          1           0       -6.303999    0.455747    1.644683
     58          1           0       -7.450432    2.662912    0.990646
     59          1           0       -5.895619    3.394788    1.473927
     60          1           0       -6.876577    2.505182    2.678324
     61          1           0        3.909886    1.247551    0.282121
     62          1           0        5.638667    4.234924    0.187523
     63          1           0        5.196151    3.349407    1.676696
     64          1           0        4.042282    3.480807    0.323323
 ---------------------------------------------------------------------
 Rotational constants (GHZ):      0.3609345      0.0458869      0.0433881
 Standard basis: 6-31G(d) (6D, 7F)
 There are   492 symmetry adapted basis functions of A   symmetry.
 Integral buffers will be    131072 words long.
 Raffenetti 1 integral format.
 Two-electron integral symmetry is turned on.
   492 basis functions,   928 primitive gaussians,   492 cartesian basis functions
   108 alpha electrons      108 beta electrons
       nuclear repulsion energy      2632.8255805979 Hartrees.
 NAtoms=   64 NActive=   64 NUniq=   64 SFac= 7.50D-01 NAtFMM=   80 NAOKFM=F Big=T
 One-electron integrals computed using PRISM.
 NBasis=   492 RedAO= T  NBF=   492
 NBsUse=   492 1.00D-06 NBFU=   492
 Harris functional with IExCor=  205 diagonalized for initial guess.
 ExpMin= 1.61D-01 ExpMax= 5.48D+03 ExpMxC= 8.25D+02 IAcc=1 IRadAn=         1 AccDes= 0.00D+00
 HarFok:  IExCor=  205 AccDes= 0.00D+00 IRadAn=         1 IDoV= 1
 ScaDFX=  1.000000  1.000000  1.000000  1.000000
 FoFCou: FMM=F IPFlag=           0 FMFlag=      100000 FMFlg1=           1
         NFxFlg=           0 DoJE=T BraDBF=F KetDBF=T FulRan=T
         Omega=  0.000000  0.000000  1.000000  0.000000  0.000000 ICntrl=     500 IOpCl=  0
         NMat0=    1 NMatS0=    1 NMatT0=    0 NMatD0=    1 NMtDS0=    0 NMtDT0=    0
         I1Cent=           4 NGrid=           0.
 Petite list used in FoFCou.
 Initial guess orbital symmetries:
       Occupied  (A) (A) (A) (A) (A) (A) (A) (A) (A) (A) (A) (A)
                 (A) (A) (A) (A) (A) (A) (A) (A) (A) (A) (A) (A)
                 (A) (A) (A) (A) (A) (A) (A) (A) (A) (A) (A) (A)
                 (A) (A) (A) (A) (A) (A) (A) (A) (A) (A) (A) (A)
                 (A) (A) (A) (A) (A) (A) (A) (A) (A) (A) (A) (A)
                 (A) (A) (A) (A) (A) (A) (A) (A) (A) (A) (A) (A)
                 (A) (A) (A) (A) (A) (A) (A) (A) (A) (A) (A) (A)
                 (A) (A) (A) (A) (A) (A) (A) (A) (A) (A) (A) (A)
                 (A) (A) (A) (A) (A) (A) (A) (A) (A) (A) (A) (A)
       Virtual   (A) (A) (A) (A) (A) (A) (A) (A) (A) (A) (A) (A)
                 (A) (A) (A) (A) (A) (A) (A) (A) (A) (A) (A) (A)
                 (A) (A) (A) (A) (A) (A) (A) (A) (A) (A) (A) (A)
                 (A) (A) (A) (A) (A) (A) (A) (A) (A) (A) (A) (A)
                 (A) (A) (A) (A) (A) (A) (A) (A) (A) (A) (A) (A)
                 (A) (A) (A) (A) (A) (A) (A) (A) (A) (A) (A) (A)
                 (A) (A) (A) (A) (A) (A) (A) (A) (A) (A) (A) (A)
                 (A) (A) (A) (A) (A) (A) (A) (A) (A) (A) (A) (A)
                 (A) (A) (A) (A) (A) (A) (A) (A) (A) (A) (A) (A)
                 (A) (A) (A) (A) (A) (A) (A) (A) (A) (A) (A) (A)
                 (A) (A) (A) (A) (A) (A) (A) (A) (A) (A) (A) (A)
                 (A) (A) (A) (A) (A) (A) (A) (A) (A) (A) (A) (A)
                 (A) (A) (A) (A) (A) (A) (A) (A) (A) (A) (A) (A)
                 (A) (A) (A) (A) (A) (A) (A) (A) (A) (A) (A) (A)
                 (A) (A) (A) (A) (A) (A) (A) (A) (A) (A) (A) (A)
                 (A) (A) (A) (A) (A) (A) (A) (A) (A) (A) (A) (A)
                 (A) (A) (A) (A) (A) (A) (A) (A) (A) (A) (A) (A)
                 (A) (A) (A) (A) (A) (A) (A) (A) (A) (A) (A) (A)
                 (A) (A) (A) (A) (A) (A) (A) (A) (A) (A) (A) (A)
                 (A) (A) (A) (A) (A) (A) (A) (A) (A) (A) (A) (A)
                 (A) (A) (A) (A) (A) (A) (A) (A) (A) (A) (A) (A)
                 (A) (A) (A) (A) (A) (A) (A) (A) (A) (A) (A) (A)
                 (A) (A) (A) (A) (A) (A) (A) (A) (A) (A) (A) (A)
                 (A) (A) (A) (A) (A) (A) (A) (A) (A) (A) (A) (A)
                 (A) (A) (A) (A) (A) (A) (A) (A) (A) (A) (A) (A)
                 (A) (A) (A) (A) (A) (A) (A) (A) (A) (A) (A) (A)
                 (A) (A) (A) (A) (A) (A) (A) (A) (A) (A) (A) (A)
                 (A) (A) (A) (A) (A) (A) (A) (A) (A) (A) (A) (A)
                 (A) (A) (A) (A) (A) (A) (A) (A) (A) (A) (A) (A)
                 (A) (A) (A) (A) (A) (A) (A) (A) (A) (A) (A) (A)
                 (A) (A) (A) (A) (A) (A) (A) (A) (A) (A) (A) (A)
                 (A) (A) (A) (A) (A) (A) (A) (A) (A) (A) (A) (A)
 The electronic state of the initial guess is 1-A.
 Requested convergence on RMS density matrix=1.00D-08 within 128 cycles.
 Requested convergence on MAX density matrix=1.00D-06.
 Requested convergence on             energy=1.00D-06.
 No special actions if energy rises.
 Integral accuracy reduced to 1.0D-05 until final iterations.
 Initial convergence to 1.0D-05 achieved.  Increase integral accuracy.
 SCF Done:  E(RHF) =  -1295.59565487     A.U. after   14 cycles
             Convg  =    0.9204D-08             -V/T =  2.0024

 **********************************************************************

            Population analysis using the SCF density.

 **********************************************************************

 Orbital symmetries:
 BldTbl:  Degeneracy threshold= 1.00D-02
       Occupied  (A) (A) (A) (A) (A) (A) (A) (A) (A) (A) (A) (A)
                 (A) (A) (A) (A) (A) (A) (A) (A) (A) (A) (A) (A)
                 (A) (A) (A) (A) (A) (A) (A) (A) (A) (A) (A) (A)
                 (A) (A) (A) (A) (A) (A) (A) (A) (A) (A) (A) (A)
                 (A) (A) (A) (A) (A) (A) (A) (A) (A) (A) (A) (A)
                 (A) (A) (A) (A) (A) (A) (A) (A) (A) (A) (A) (A)
                 (A) (A) (A) (A) (A) (A) (A) (A) (A) (A) (A) (A)
                 (A) (A) (A) (A) (A) (A) (A) (A) (A) (A) (A) (A)
                 (A) (A) (A) (A) (A) (A) (A) (A) (A) (A) (A) (A)
       Virtual   (A) (A) (A) (A) (A) (A) (A) (A) (A) (A) (A) (A)
                 (A) (A) (A) (A) (A) (A) (A) (A) (A) (A) (A) (A)
                 (A) (A) (A) (A) (A) (A) (A) (A) (A) (A) (A) (A)
                 (A) (A) (A) (A) (A) (A) (A) (A) (A) (A) (A) (A)
                 (A) (A) (A) (A) (A) (A) (A) (A) (A) (A) (A) (A)
                 (A) (A) (A) (A) (A) (A) (A) (A) (A) (A) (A) (A)
                 (A) (A) (A) (A) (A) (A) (A) (A) (A) (A) (A) (A)
                 (A) (A) (A) (A) (A) (A) (A) (A) (A) (A) (A) (A)
                 (A) (A) (A) (A) (A) (A) (A) (A) (A) (A) (A) (A)
                 (A) (A) (A) (A) (A) (A) (A) (A) (A) (A) (A) (A)
                 (A) (A) (A) (A) (A) (A) (A) (A) (A) (A) (A) (A)
                 (A) (A) (A) (A) (A) (A) (A) (A) (A) (A) (A) (A)
                 (A) (A) (A) (A) (A) (A) (A) (A) (A) (A) (A) (A)
                 (A) (A) (A) (A) (A) (A) (A) (A) (A) (A) (A) (A)
                 (A) (A) (A) (A) (A) (A) (A) (A) (A) (A) (A) (A)
                 (A) (A) (A) (A) (A) (A) (A) (A) (A) (A) (A) (A)
                 (A) (A) (A) (A) (A) (A) (A) (A) (A) (A) (A) (A)
                 (A) (A) (A) (A) (A) (A) (A) (A) (A) (A) (A) (A)
                 (A) (A) (A) (A) (A) (A) (A) (A) (A) (A) (A) (A)
                 (A) (A) (A) (A) (A) (A) (A) (A) (A) (A) (A) (A)
                 (A) (A) (A) (A) (A) (A) (A) (A) (A) (A) (A) (A)
                 (A) (A) (A) (A) (A) (A) (A) (A) (A) (A) (A) (A)
                 (A) (A) (A) (A) (A) (A) (A) (A) (A) (A) (A) (A)
                 (A) (A) (A) (A) (A) (A) (A) (A) (A) (A) (A) (A)
                 (A) (A) (A) (A) (A) (A) (A) (A) (A) (A) (A) (A)
                 (A) (A) (A) (A) (A) (A) (A) (A) (A) (A) (A) (A)
                 (A) (A) (A) (A) (A) (A) (A) (A) (A) (A) (A) (A)
                 (A) (A) (A) (A) (A) (A) (A) (A) (A) (A) (A) (A)
                 (A) (A) (A) (A) (A) (A) (A) (A) (A) (A) (A) (A)
                 (A) (A) (A) (A) (A) (A) (A) (A) (A) (A) (A) (A)
                 (A) (A) (A) (A) (A) (A) (A) (A) (A) (A) (A) (A)
                 (A) (A) (A) (A) (A) (A) (A) (A) (A) (A) (A) (A)
 The electronic state is 1-A.
 Alpha  occ. eigenvalues --  -20.54051 -20.53196 -20.52641 -20.52194 -15.60605
 Alpha  occ. eigenvalues --  -15.59145 -15.58255 -15.57677 -11.36779 -11.35539
 Alpha  occ. eigenvalues --  -11.35128 -11.34950 -11.30171 -11.29855 -11.26088
 Alpha  occ. eigenvalues --  -11.25037 -11.25022 -11.24403 -11.24009 -11.23044
 Alpha  occ. eigenvalues --  -11.22947 -11.22921 -11.22848 -11.22783 -11.22717
 Alpha  occ. eigenvalues --  -11.22668 -11.22644 -11.21751  -1.39057  -1.37883
 Alpha  occ. eigenvalues --   -1.36910  -1.36767  -1.24884  -1.22933  -1.22657
 Alpha  occ. eigenvalues --   -1.21305  -1.10953  -1.09389  -1.07302  -1.04462
 Alpha  occ. eigenvalues --   -1.01294  -0.99307  -0.98542  -0.95441  -0.94918
 Alpha  occ. eigenvalues --   -0.94604  -0.91708  -0.87142  -0.85684  -0.82237
 Alpha  occ. eigenvalues --   -0.81323  -0.78931  -0.78550  -0.76133  -0.75813
 Alpha  occ. eigenvalues --   -0.72333  -0.71877  -0.70464  -0.68954  -0.67143
 Alpha  occ. eigenvalues --   -0.66535  -0.65464  -0.64864  -0.63978  -0.63604
 Alpha  occ. eigenvalues --   -0.62661  -0.62050  -0.61594  -0.61472  -0.61165
 Alpha  occ. eigenvalues --   -0.60623  -0.59691  -0.59387  -0.58953  -0.58535
 Alpha  occ. eigenvalues --   -0.58192  -0.57549  -0.56895  -0.56130  -0.55755
 Alpha  occ. eigenvalues --   -0.55607  -0.54971  -0.54730  -0.54031  -0.53282
 Alpha  occ. eigenvalues --   -0.53037  -0.52557  -0.52382  -0.51704  -0.51300
 Alpha  occ. eigenvalues --   -0.50753  -0.50041  -0.50021  -0.49321  -0.48774
 Alpha  occ. eigenvalues --   -0.48323  -0.46873  -0.46073  -0.45243  -0.43113
 Alpha  occ. eigenvalues --   -0.42292  -0.42068  -0.40981  -0.39798  -0.39193
 Alpha  occ. eigenvalues --   -0.38760  -0.37917  -0.34305
 Alpha virt. eigenvalues --    0.17171   0.17583   0.18639   0.18900   0.19487
 Alpha virt. eigenvalues --    0.19744   0.20291   0.22149   0.23136   0.24027
 Alpha virt. eigenvalues --    0.24623   0.25168   0.25604   0.26256   0.26980
 Alpha virt. eigenvalues --    0.27464   0.27795   0.28264   0.28995   0.29179
 Alpha virt. eigenvalues --    0.29400   0.30302   0.30814   0.31055   0.31440
 Alpha virt. eigenvalues --    0.31504   0.32086   0.32672   0.32879   0.33027
 Alpha virt. eigenvalues --    0.33518   0.33717   0.33865   0.34420   0.34714
 Alpha virt. eigenvalues --    0.35247   0.35304   0.35958   0.36194   0.36769
 Alpha virt. eigenvalues --    0.37146   0.37477   0.38387   0.38870   0.39874
 Alpha virt. eigenvalues --    0.40185   0.40385   0.41214   0.41780   0.42711
 Alpha virt. eigenvalues --    0.43103   0.43923   0.45028   0.45754   0.46564
 Alpha virt. eigenvalues --    0.47142   0.48519   0.49373   0.50270   0.51632
 Alpha virt. eigenvalues --    0.53715   0.55261   0.55748   0.58387   0.59627
 Alpha virt. eigenvalues --    0.60759   0.61269   0.62857   0.69192   0.69921
 Alpha virt. eigenvalues --    0.70130   0.70966   0.72847   0.73510   0.73613
 Alpha virt. eigenvalues --    0.73865   0.74656   0.75470   0.76027   0.76142
 Alpha virt. eigenvalues --    0.76440   0.76583   0.76923   0.78146   0.78636
 Alpha virt. eigenvalues --    0.79748   0.79822   0.80696   0.81611   0.82314
 Alpha virt. eigenvalues --    0.82911   0.83255   0.84842   0.85340   0.85548
 Alpha virt. eigenvalues --    0.86870   0.87662   0.88031   0.88406   0.89816
 Alpha virt. eigenvalues --    0.90963   0.91292   0.91609   0.92902   0.93882
 Alpha virt. eigenvalues --    0.94111   0.95214   0.96057   0.96468   0.97037
 Alpha virt. eigenvalues --    0.97599   0.98159   0.98592   0.99144   0.99410
 Alpha virt. eigenvalues --    1.00092   1.00470   1.01826   1.01951   1.03175
 Alpha virt. eigenvalues --    1.03514   1.03929   1.04725   1.05220   1.06011
 Alpha virt. eigenvalues --    1.06554   1.07408   1.08204   1.09471   1.10284
 Alpha virt. eigenvalues --    1.10534   1.11081   1.11808   1.12134   1.12990
 Alpha virt. eigenvalues --    1.13238   1.13332   1.13735   1.14314   1.15057
 Alpha virt. eigenvalues --    1.15403   1.15832   1.16010   1.16571   1.16780
 Alpha virt. eigenvalues --    1.17306   1.17587   1.17756   1.18376   1.18714
 Alpha virt. eigenvalues --    1.18772   1.19201   1.19791   1.20120   1.20385
 Alpha virt. eigenvalues --    1.20731   1.20822   1.21235   1.21469   1.21819
 Alpha virt. eigenvalues --    1.22130   1.22666   1.23061   1.23484   1.25031
 Alpha virt. eigenvalues --    1.25082   1.26077   1.26270   1.26969   1.27418
 Alpha virt. eigenvalues --    1.28556   1.28692   1.30352   1.30719   1.31719
 Alpha virt. eigenvalues --    1.32291   1.33659   1.34351   1.37445   1.38038
 Alpha virt. eigenvalues --    1.38126   1.38791   1.39801   1.41816   1.42479
 Alpha virt. eigenvalues --    1.43790   1.44176   1.45504   1.46354   1.47578
 Alpha virt. eigenvalues --    1.49569   1.49796   1.51442   1.52704   1.53561
 Alpha virt. eigenvalues --    1.54581   1.55456   1.57283   1.58213   1.60586
 Alpha virt. eigenvalues --    1.61037   1.62292   1.64106   1.64930   1.67473
 Alpha virt. eigenvalues --    1.69192   1.70682   1.71978   1.72322   1.72834
 Alpha virt. eigenvalues --    1.72994   1.75008   1.75359   1.77257   1.79101
 Alpha virt. eigenvalues --    1.80668   1.81300   1.82193   1.85057   1.86544
 Alpha virt. eigenvalues --    1.88657   1.89898   1.90841   1.92308   1.94632
 Alpha virt. eigenvalues --    1.95456   1.97213   1.98791   1.99791   2.00392
 Alpha virt. eigenvalues --    2.01534   2.03709   2.05396   2.06172   2.06449
 Alpha virt. eigenvalues --    2.07931   2.08496   2.09675   2.10370   2.10990
 Alpha virt. eigenvalues --    2.11380   2.12115   2.12595   2.14179   2.14484
 Alpha virt. eigenvalues --    2.14945   2.16144   2.16170   2.16963   2.18272
 Alpha virt. eigenvalues --    2.18569   2.19032   2.20144   2.20787   2.21428
 Alpha virt. eigenvalues --    2.22649   2.23643   2.24401   2.25005   2.26453
 Alpha virt. eigenvalues --    2.27136   2.27641   2.28465   2.29028   2.29737
 Alpha virt. eigenvalues --    2.29862   2.30971   2.31831   2.32002   2.32777
 Alpha virt. eigenvalues --    2.34562   2.35276   2.36654   2.36922   2.37308
 Alpha virt. eigenvalues --    2.37782   2.39678   2.40469   2.42581   2.43589
 Alpha virt. eigenvalues --    2.45500   2.46197   2.47325   2.47937   2.50736
 Alpha virt. eigenvalues --    2.51408   2.51747   2.52586   2.53548   2.54132
 Alpha virt. eigenvalues --    2.54664   2.55446   2.56445   2.57974   2.58689
 Alpha virt. eigenvalues --    2.59190   2.60520   2.62140   2.62785   2.63519
 Alpha virt. eigenvalues --    2.64322   2.65373   2.65778   2.67728   2.70147
 Alpha virt. eigenvalues --    2.70301   2.71544   2.71636   2.72209   2.73538
 Alpha virt. eigenvalues --    2.74872   2.75361   2.76001   2.77067   2.77851
 Alpha virt. eigenvalues --    2.79237   2.80517   2.81610   2.82660   2.84399
 Alpha virt. eigenvalues --    2.85105   2.86598   2.89743   2.90985   2.93068
 Alpha virt. eigenvalues --    2.94547   2.95228   2.96609   2.98041   2.99741
 Alpha virt. eigenvalues --    3.01087   3.01578   3.02822   3.04422   3.06404
 Alpha virt. eigenvalues --    3.07156   3.08350   3.10297   3.12173   3.13233
 Alpha virt. eigenvalues --    3.13796   3.15770   3.21089   3.24204   3.25420
 Alpha virt. eigenvalues --    3.30666   3.31004   3.36864   3.38709   3.39234
 Alpha virt. eigenvalues --    3.39310   3.41449   3.47237   3.48035   3.53221
 Alpha virt. eigenvalues --    3.53615   4.34378   4.37080   4.42038   4.46351
 Alpha virt. eigenvalues --    4.49181   4.51368   4.52899   4.55360   4.57532
 Alpha virt. eigenvalues --    4.61456   4.63287   4.64029   4.66497   4.69745
 Alpha virt. eigenvalues --    4.71280   4.72657   4.74716   4.80109   4.80804
 Alpha virt. eigenvalues --    4.86460   4.87549   4.91992   4.95047   4.98182
 Alpha virt. eigenvalues --    5.00499   5.04928   5.17089   5.19567
          Condensed to atoms (all electrons):
 Mulliken atomic charges:
              1
     1  C   -0.277354
     2  N   -0.796061
     3  C    0.802153
     4  O   -0.649243
     5  C    0.092668
     6  C   -0.509147
     7  C   -0.309070
     8  C   -0.315732
     9  C   -0.374879
    10  C   -0.186787
    11  C   -0.168871
    12  C   -0.353766
    13  C   -0.336238
    14  C   -0.332890
    15  C    0.123802
    16  C   -0.487331
    17  N   -0.851890
    18  C    0.753920
    19  C   -0.583530
    20  O   -0.605514
    21  C    0.801508
    22  O   -0.633052
    23  N   -0.776162
    24  C   -0.280784
    25  N   -0.806852
    26  C    0.773817
    27  C   -0.592494
    28  O   -0.620479
    29  H    0.179260
    30  H    0.166946
    31  H    0.205076
    32  H    0.392968
    33  H    0.143684
    34  H    0.195364
    35  H    0.224925
    36  H    0.192783
    37  H    0.168516
    38  H    0.164506
    39  H    0.178596
    40  H    0.180987
    41  H    0.175778
    42  H    0.180619
    43  H    0.184345
    44  H    0.176139
    45  H    0.162938
    46  H    0.214457
    47  H    0.172876
    48  H    0.191245
    49  H    0.155436
    50  H    0.196140
    51  H    0.217525
    52  H    0.146542
    53  H    0.386498
    54  H    0.210444
    55  H    0.215835
    56  H    0.171107
    57  H    0.394900
    58  H    0.180331
    59  H    0.202143
    60  H    0.163875
    61  H    0.410769
    62  H    0.209361
    63  H    0.212270
    64  H    0.175075
 Sum of Mulliken atomic charges =   0.00000
 Mulliken charges with hydrogens summed into heavy atoms:
              1
     1  C    0.273928
     2  N   -0.403093
     3  C    0.802153
     4  O   -0.649243
     5  C    0.092668
     6  C    0.054827
     7  C    0.052230
     8  C    0.027370
     9  C   -0.018115
    10  C   -0.006168
    11  C    0.015474
    12  C   -0.014688
    13  C    0.051095
    14  C    0.013791
    15  C    0.123802
    16  C    0.072876
    17  N   -0.465392
    18  C    0.753920
    19  C    0.013856
    20  O   -0.605514
    21  C    0.801508
    22  O   -0.633052
    23  N   -0.381262
    24  C    0.265564
    25  N   -0.396083
    26  C    0.773817
    27  C    0.004210
    28  O   -0.620479
 Sum of Mulliken charges with hydrogens summed into heavy atoms =   0.00000
 DipInt: DoE/N= T F RetVal/Mat= T F Init=T NMatP=  1 IDeriv=0 Min/MaxMlt=  0  4
 Entering OneElI...
 OneElI was handed    32936476 working-precision words.
 Multipole integrals L=0 to 4 MinM= 0 MaxM= 0.
 Requested accuracy = 0.1000D-12
 PrsmSu:  NPrtUS=   1 ThrOK=F IAlg=1
 PRISM was handed    32095919 working-precision words and  9801 shell-pairs
 IPart=  0 NShTot=        9801 NBatch=          72 AvBLen=       136.1
 Electronic moments (au):
       -216.00000000         -0.47423944         -2.84072313          0.70471534
     -20770.85988789      -2225.06496704       -953.78719448          3.41027347
        -25.24539815          3.60907116      19316.80060599      -1084.75393503
       -100.21038709      -2702.42900364       5611.38068051      -5943.69470033
       -985.80099364        286.83982728      -2039.33401588       3529.91389996
   -2831232.16278167     -59542.08480749     -11535.31922878     -55755.79636165
       4010.92811725      -6783.75361893        728.16448506         82.42486749
       -338.02967173    -279154.98956732     -97853.63037336     -10023.31533601
       1925.93913589      -5717.10061972      14397.47143182
 Electronic spatial extent (au):  <R**2>=          23949.7120
 DipInt: DoE/N= F T RetVal/Mat= T F Init=T NMatP=  1 IDeriv=0 Min/MaxMlt=  0  4
 Nuclear    moments (au):
        216.00000000          0.00000000          0.00000000          0.00000000
      20621.16584557       2106.99467686        823.57439703          0.00000000
          0.00000000          0.00000000     -19456.53263320       1044.39616008
        102.45900559       2720.34018392      -6074.36698953       6137.74375165
        962.86829677       -284.72597850       2075.22276334      -3541.20121893
    2752559.59829365      52169.13496540       8200.33491477      53950.33562587
      -7843.54129168       7085.03519876       -683.58263521       -163.74407207
        318.87325161     267307.99131631      85194.11921064       8260.82251450
      -1534.93262353       5710.03241727     -14444.50596759
 Total      moments (au):
          0.00000000         -0.47423944         -2.84072313          0.70471534
       -149.69404232       -118.07029017       -130.21279745          3.41027347
        -25.24539815          3.60907116       -139.73202722        -40.35777494
          2.24861850         17.91118028       -462.98630902        194.04905132
        -22.93269688          2.11384878         35.88874746        -11.28731897
     -78672.56448802      -7372.94984210      -3334.98431401      -1805.46073578
      -3832.61317443        301.28157983         44.58184986        -81.31920458
        -19.15642013     -11846.99825101     -12659.51116271      -1762.49282151
        391.00651236         -7.06820244        -47.03453577
 Traceless Quadrup. (au):
        -17.03499901         14.58875314          2.44624586          3.41027347
        -25.24539815          3.60907116
 Charge=              0.0000 electrons
 Dipole moment (field-independent basis, Debye):
    X=             -1.2054    Y=             -7.2204    Z=              1.7912  Tot=              7.5363
 Quadrupole moment (field-independent basis, Debye-Ang):
   XX=           -201.3436   YY=           -158.8086   ZZ=           -175.1407
   XY=              4.5869   XZ=            -33.9559   YZ=              4.8543
 Traceless Quadrupole moment (field-independent basis, Debye-Ang):
   XX=            -22.9127   YY=             19.6224   ZZ=              3.2903
   XY=              4.5869   XZ=            -33.9559   YZ=              4.8543
 Octapole moment (field-independent basis, Debye-Ang**2):
  XXX=            -99.4559  YYY=            -28.7251  ZZZ=              1.6005  XYY=             12.7485
  XXY=           -329.5358  XXZ=            138.1166  XZZ=            -16.3226  YZZ=              1.5046
  YYZ=             25.5442  XYZ=             -8.0339
 Hexadecapole moment (field-independent basis, Debye-Ang**3):
 XXXX=         -29631.8583 YYYY=          -2777.0063 ZZZZ=          -1256.1149 XXXY=           -680.0230
 XXXZ=          -1443.5458 YYYX=            113.4771 YYYZ=             16.7917 ZZZX=            -30.6287
 ZZZY=             -7.2152 XXYY=          -4462.1473 XXZZ=          -4768.1786 YYZZ=           -663.8393
 XXYZ=            147.2718 YYXZ=             -2.6622 ZZXY=            -17.7155
 N-N= 2.632825580598D+03 E-N=-8.295984061785D+03  KE= 1.292511867616D+03
 Entering OneElI...
 OneElI was handed    32450256 working-precision words.
 Calculate electrostatic properties
    NBasis =   492  MinDer = 0  MaxDer = 0
    NGrid  =    64  NMatD  =   1
 Requested accuracy = 0.1000D-12
 PrsmSu:  NPrtUS=   1 ThrOK=F IAlg=1
 PRISM was handed    31701402 working-precision words and  8362 shell-pairs
 IPart=  0 NShTot=      535168 NBatch=        8362 AvBLen=        64.0
 --------------------------------------------------------
       Center         ----      EFG at Nuclei      ----
                      3XX-RR        3YY-RR        3ZZ-RR
 --------------------------------------------------------
     1   Atom        0.109867      0.001226     -0.111093
     2   Atom        0.538462     -0.105194     -0.433268
     3   Atom       -0.385253     -0.005189      0.390442
     4   Atom       -0.345953      0.762197     -0.416245
     5   Atom        0.136365     -0.209867      0.073502
     6   Atom        0.015181      0.015129     -0.030310
     7   Atom       -0.028992      0.032672     -0.003681
     8   Atom       -0.009183     -0.009628      0.018811
     9   Atom        0.015297     -0.006424     -0.008873
    10   Atom        0.178612     -0.047187     -0.131424
    11   Atom        0.189290     -0.052371     -0.136919
    12   Atom        0.004071     -0.019215      0.015144
    13   Atom       -0.032588      0.015602      0.016986
    14   Atom       -0.023822      0.005410      0.018412
    15   Atom       -0.035983     -0.112119      0.148101
    16   Atom        0.064226      0.003407     -0.067633
    17   Atom       -0.414495     -0.275736      0.690231
    18   Atom        0.104599      0.181363     -0.285962
    19   Atom        0.026290     -0.028552      0.002262
    20   Atom        0.866029     -0.003561     -0.862468
    21   Atom       -0.327028      0.332750     -0.005722
    22   Atom       -0.159785     -0.006208      0.165993
    23   Atom        0.451349     -0.462269      0.010920
    24   Atom        0.052997     -0.141001      0.088005
    25   Atom       -0.253026     -0.400417      0.653443
    26   Atom        0.295058      0.167939     -0.462997
    27   Atom        0.009262     -0.028815      0.019553
    28   Atom       -0.908946      1.427728     -0.518782
    29   Atom       -0.138728      0.059976      0.078752
    30   Atom        0.133673     -0.237464      0.103791
    31   Atom       -0.083760      0.150884     -0.067123
    32   Atom        0.093096      0.159790     -0.252886
    33   Atom        0.148745     -0.213671      0.064926
    34   Atom        0.135604     -0.051464     -0.084139
    35   Atom       -0.205817      0.141703      0.064113
    36   Atom        0.087005     -0.001330     -0.085675
    37   Atom        0.088092     -0.151902      0.063811
    38   Atom       -0.021288      0.016696      0.004591
    39   Atom        0.088555     -0.022149     -0.066405
    40   Atom        0.018840      0.035407     -0.054247
    41   Atom       -0.082155      0.052447      0.029708
    42   Atom       -0.031804     -0.064067      0.095871
    43   Atom        0.112926     -0.089956     -0.022971
    44   Atom        0.055850      0.110978     -0.166829
    45   Atom        0.092681     -0.157313      0.064632
    46   Atom        0.096565     -0.169002      0.072436
    47   Atom        0.037816      0.121043     -0.158859
    48   Atom        0.117266      0.130456     -0.247722
    49   Atom        0.098256     -0.250982      0.152726
    50   Atom       -0.021653     -0.056517      0.078170
    51   Atom       -0.165601      0.146724      0.018877
    52   Atom        0.084765     -0.213746      0.128980
    53   Atom        0.050718     -0.220142      0.169425
    54   Atom        0.151098     -0.036281     -0.114817
    55   Atom       -0.235463      0.124717      0.110746
    56   Atom        0.035730      0.067439     -0.103169
    57   Atom        0.112241     -0.229357      0.117116
    58   Atom       -0.139629      0.135695      0.003934
    59   Atom       -0.021471     -0.125725      0.147196
    60   Atom        0.120745      0.138728     -0.259473
    61   Atom       -0.196976      0.158425      0.038551
    62   Atom        0.041999     -0.132858      0.090859
    63   Atom        0.149590      0.145170     -0.294760
    64   Atom       -0.265182      0.135866      0.129316
 --------------------------------------------------------
                        XY            XZ            YZ
 --------------------------------------------------------
     1   Atom        0.072558     -0.116403      0.172240
     2   Atom        0.662627      0.223286      0.156640
     3   Atom       -0.323556     -0.052184     -0.061015
     4   Atom       -0.756219      0.504832     -0.932013
     5   Atom        0.092466     -0.013369     -0.033090
     6   Atom        0.030152      0.094094     -0.013809
     7   Atom       -0.047467     -0.040738     -0.042868
     8   Atom       -0.013346      0.035722     -0.007599
     9   Atom        0.014970      0.001055      0.007274
    10   Atom        0.043787      0.095607     -0.175746
    11   Atom        0.045139      0.106386     -0.193181
    12   Atom       -0.005713      0.016338     -0.004243
    13   Atom       -0.045386      0.041887     -0.020555
    14   Atom        0.031099     -0.071537      0.029642
    15   Atom       -0.179544      0.100177      0.088392
    16   Atom        0.021767      0.034819     -0.038623
    17   Atom       -0.127168     -0.260422      0.508528
    18   Atom        0.107270      0.182677     -0.385161
    19   Atom       -0.028091      0.009163      0.030954
    20   Atom        1.209122     -0.104018      0.014300
    21   Atom       -0.109717     -0.329927     -0.114784
    22   Atom       -0.747740     -0.749264      1.005521
    23   Atom        0.096505      0.714010      0.014408
    24   Atom        0.173085      0.053528     -0.092598
    25   Atom       -0.168639      0.439774     -0.455519
    26   Atom       -0.064559     -0.134559      0.280760
    27   Atom        0.039326      0.003746     -0.019822
    28   Atom        0.324807      0.045350      0.780364
    29   Atom       -0.160619     -0.142885     -0.067091
    30   Atom        0.101156      0.025599     -0.110510
    31   Atom       -0.005818      0.213913      0.018324
    32   Atom        0.088738      0.235864     -0.085459
    33   Atom        0.020412      0.016534     -0.170213
    34   Atom        0.048309     -0.041407      0.214887
    35   Atom       -0.061310     -0.155336     -0.024372
    36   Atom        0.085007     -0.111332      0.185978
    37   Atom        0.111279      0.062462     -0.162363
    38   Atom       -0.144716     -0.144026     -0.137944
    39   Atom        0.094957     -0.100543      0.191955
    40   Atom       -0.123813     -0.159907     -0.147117
    41   Atom       -0.141717      0.163278      0.106469
    42   Atom       -0.194703      0.093462      0.121256
    43   Atom        0.077000     -0.072937      0.215169
    44   Atom       -0.060778     -0.165875     -0.108568
    45   Atom        0.124149     -0.063663      0.164594
    46   Atom        0.113649     -0.050130      0.153159
    47   Atom       -0.055009     -0.170678     -0.090803
    48   Atom        0.015392      0.084747     -0.078925
    49   Atom        0.116185      0.000063     -0.007818
    50   Atom       -0.191243      0.101594      0.110081
    51   Atom        0.023539     -0.192479      0.012758
    52   Atom        0.160747      0.031678     -0.068012
    53   Atom        0.196321     -0.091501      0.174350
    54   Atom       -0.013141     -0.007259     -0.217607
    55   Atom        0.082027      0.126982     -0.026287
    56   Atom        0.087201     -0.168260      0.149194
    57   Atom       -0.187011      0.116992      0.162093
    58   Atom        0.046172     -0.207072      0.022490
    59   Atom       -0.202504      0.039163      0.041928
    60   Atom        0.002417      0.123814      0.016106
    61   Atom        0.023700      0.286687     -0.054695
    62   Atom       -0.172132      0.083127      0.125759
    63   Atom        0.004933     -0.039038      0.006919
    64   Atom        0.040810     -0.103417      0.005829
 --------------------------------------------------------


 ---------------------------------------------------------------------------------
              Nuclear Quadrupole in Principal Axis System
 ---------------------------------------------------------------------------------

       Atom             a.u.   MegaHertz   Gauss  10(-4) cm-1        Axes

              Baa    -0.2837   -38.069   -13.584   -12.698  0.3285 -0.5485  0.7689
     1 C(13)  Bbb     0.1238    16.611     5.927     5.541  0.2445  0.8357  0.4917
              Bcc     0.1599    21.458     7.657     7.158  0.9123 -0.0264 -0.4087
 
              Baa    -0.5249   -20.246    -7.224    -6.753 -0.4500  0.8317 -0.3251
     2 N(14)  Bbb    -0.4799   -18.510    -6.605    -6.174 -0.3248  0.1867  0.9272
              Bcc     1.0049    38.756    13.829    12.927  0.8319  0.5228  0.1861
 
              Baa    -0.5764   -77.344   -27.598   -25.799  0.8638  0.4977  0.0780
     3 C(13)  Bbb     0.1767    23.713     8.461     7.910 -0.5037  0.8553  0.1212
              Bcc     0.3997    53.631    19.137    17.889 -0.0064 -0.1440  0.9896
 
              Baa    -0.9545    69.068    24.645    23.038 -0.3036  0.3478  0.8870
     4 O(17)  Bbb    -0.7265    52.568    18.758    17.535  0.8608  0.4992  0.0989
              Bcc     1.6810  -121.636   -43.403   -40.573 -0.4084  0.7936 -0.4510
 
              Baa    -0.2357   -31.631   -11.287   -10.551 -0.2370  0.9670  0.0932
     5 C(13)  Bbb     0.0712     9.560     3.411     3.189  0.2459 -0.0331  0.9687
              Bcc     0.1645    22.071     7.876     7.362  0.9399  0.2525 -0.2300
 
              Baa    -0.1113   -14.937    -5.330    -4.983 -0.6155  0.2291  0.7541
     6 C(13)  Bbb     0.0189     2.539     0.906     0.847 -0.0203  0.9519 -0.3058
              Bcc     0.0924    12.398     4.424     4.136  0.7878  0.2036  0.5813
 
              Baa    -0.0917   -12.300    -4.389    -4.103  0.7015  0.4565  0.5473
     7 C(13)  Bbb     0.0256     3.433     1.225     1.145 -0.6563  0.1146  0.7457
              Bcc     0.0661     8.867     3.164     2.958 -0.2777  0.8823 -0.3800
 
              Baa    -0.0355    -4.763    -1.699    -1.589  0.8203  0.2761 -0.5010
     8 C(13)  Bbb    -0.0111    -1.491    -0.532    -0.497 -0.0977  0.9305  0.3529
              Bcc     0.0466     6.253     2.231     2.086  0.5636 -0.2406  0.7902
 
              Baa    -0.0181    -2.434    -0.869    -0.812 -0.3234  0.7618 -0.5613
     9 C(13)  Bbb    -0.0054    -0.720    -0.257    -0.240 -0.3653  0.4467  0.8167
              Bcc     0.0235     3.154     1.125     1.052  0.8729  0.4692  0.1338
 
              Baa    -0.2923   -39.221   -13.995   -13.083 -0.2127  0.5942  0.7757
    10 C(13)  Bbb     0.0863    11.587     4.135     3.865  0.1997  0.8035 -0.5608
              Bcc     0.2059    27.634     9.860     9.218  0.9565 -0.0356  0.2896
 
              Baa    -0.3169   -42.529   -15.175   -14.186 -0.2154  0.5996  0.7708
    11 C(13)  Bbb     0.0952    12.776     4.559     4.262  0.2423  0.7974 -0.5526
              Bcc     0.2217    29.753    10.616     9.924  0.9460 -0.0677  0.3171
 
              Baa    -0.0205    -2.758    -0.984    -0.920  0.2148  0.9765  0.0178
    12 C(13)  Bbb    -0.0073    -0.978    -0.349    -0.326  0.7830 -0.1613 -0.6008
              Bcc     0.0278     3.735     1.333     1.246  0.5838 -0.1430  0.7992
 
              Baa    -0.0688    -9.229    -3.293    -3.078  0.8627  0.3838 -0.3294
    13 C(13)  Bbb    -0.0042    -0.560    -0.200    -0.187 -0.0290  0.6877  0.7255
              Bcc     0.0729     9.788     3.493     3.265 -0.5049  0.6163 -0.6044
 
              Baa    -0.0954   -12.798    -4.567    -4.269  0.7302 -0.3903  0.5608
    14 C(13)  Bbb     0.0230     3.088     1.102     1.030  0.3695  0.9160  0.1563
              Bcc     0.0724     9.710     3.465     3.239 -0.5746  0.0931  0.8131
 
              Baa    -0.2967   -39.816   -14.207   -13.281  0.6155  0.7350 -0.2847
    15 C(13)  Bbb     0.1041    13.973     4.986     4.661  0.6990 -0.6759 -0.2337
              Bcc     0.1926    25.843     9.221     8.620  0.3642  0.0551  0.9297
 
              Baa    -0.0950   -12.745    -4.548    -4.251 -0.2477  0.4010  0.8819
    16 C(13)  Bbb     0.0198     2.654     0.947     0.885 -0.0980  0.8953 -0.4346
              Bcc     0.0752    10.091     3.601     3.366  0.9639  0.1941  0.1825
 
              Baa    -0.5013   -19.336    -6.899    -6.450  0.4554  0.8504 -0.2634
    17 N(14)  Bbb    -0.4678   -18.042    -6.438    -6.018  0.8664 -0.3553  0.3509
              Bcc     0.9691    37.378    13.337    12.468 -0.2048  0.3880  0.8986
 
              Baa    -0.5694   -76.403   -27.263   -25.485 -0.2998  0.4690  0.8307
    18 C(13)  Bbb     0.1711    22.961     8.193     7.659  0.9539  0.1330  0.2692
              Bcc     0.3983    53.442    19.070    17.826  0.0158  0.8731 -0.4873
 
              Baa    -0.0576    -7.731    -2.759    -2.579  0.3257  0.8186 -0.4730
    19 C(13)  Bbb     0.0189     2.542     0.907     0.848  0.3313  0.3698  0.8680
              Bcc     0.0387     5.189     1.852     1.731  0.8855 -0.4395 -0.1508
 
              Baa    -0.9309    67.361    24.036    22.469  0.4081 -0.5434  0.7336
    20 O(17)  Bbb    -0.7875    56.984    20.333    19.008 -0.4050  0.6123  0.6790
              Bcc     1.7184  -124.346   -44.370   -41.477  0.8182  0.5742 -0.0298
 
              Baa    -0.5599   -75.136   -26.811   -25.063  0.8308  0.1702  0.5299
    21 C(13)  Bbb     0.1918    25.732     9.182     8.583 -0.5562  0.2197  0.8015
              Bcc     0.3682    49.404    17.629    16.479 -0.0200  0.9606 -0.2772
 
              Baa    -0.9379    67.867    24.216    22.638  0.1904  0.7867 -0.5873
    22 O(17)  Bbb    -0.7551    54.641    19.497    18.226  0.8473  0.1705  0.5031
              Bcc     1.6930  -122.507   -43.714   -40.864 -0.4959  0.5934  0.6340
 
              Baa    -0.5435   -20.960    -7.479    -6.991 -0.5326  0.5137  0.6726
    23 N(14)  Bbb    -0.4400   -16.971    -6.056    -5.661  0.2637  0.8559 -0.4449
              Bcc     0.9835    37.931    13.535    12.652  0.8042  0.0596  0.5913
 
              Baa    -0.2740   -36.770   -13.120   -12.265 -0.4845  0.8277  0.2833
    24 C(13)  Bbb     0.1196    16.048     5.726     5.353  0.1581 -0.2357  0.9589
              Bcc     0.1544    20.722     7.394     6.912  0.8604  0.5093 -0.0167
 
              Baa    -0.5701   -21.989    -7.846    -7.335  0.0291  0.9401  0.3395
    25 N(14)  Bbb    -0.4299   -16.581    -5.916    -5.531  0.9356  0.0940 -0.3403
              Bcc     1.0001    38.570    13.763    12.866  0.3518 -0.3276  0.8769
 
              Baa    -0.5821   -78.109   -27.871   -26.054  0.1182 -0.3392  0.9333
    26 C(13)  Bbb     0.1824    24.476     8.734     8.164  0.6468  0.7394  0.1868
              Bcc     0.3997    53.634    19.138    17.890  0.7534 -0.5816 -0.3068
 
              Baa    -0.0581    -7.790    -2.780    -2.598 -0.4999  0.8331  0.2369
    27 C(13)  Bbb     0.0203     2.730     0.974     0.911  0.5100  0.0620  0.8580
              Bcc     0.0377     5.060     1.805     1.688  0.7000  0.5497 -0.4558
 
              Baa    -0.9712    70.278    25.077    23.442  0.9337 -0.2186  0.2835
    28 O(17)  Bbb    -0.7697    55.698    19.874    18.579 -0.3371 -0.2704  0.9018
              Bcc     1.7410  -125.975   -44.951   -42.021  0.1205  0.9376  0.3262
 
              Baa    -0.2947  -157.232   -56.104   -52.447  0.8094  0.4401  0.3888
    29 H(1)   Bbb     0.1370    73.108    26.087    24.386  0.0365 -0.6985  0.7147
              Bcc     0.1577    84.124    30.018    28.061  0.5861 -0.5643 -0.5814
 
              Baa    -0.2955  -157.643   -56.251   -52.584 -0.2361  0.9325  0.2733
    30 H(1)   Bbb     0.1358    72.437    25.847    24.162  0.1645 -0.2388  0.9570
              Bcc     0.1597    85.206    30.404    28.422  0.9577  0.2709 -0.0970
 
              Baa    -0.2902  -154.818   -55.243   -51.642  0.7196  0.0383 -0.6933
    31 H(1)   Bbb     0.1339    71.429    25.488    23.826  0.6285 -0.4604  0.6269
              Bcc     0.1563    83.389    29.755    27.816  0.2952  0.8869  0.3554
 
              Baa    -0.3968  -211.731   -75.551   -70.626 -0.4545  0.2055  0.8667
    32 H(1)   Bbb     0.1562    83.366    29.747    27.808 -0.4332  0.7992 -0.4167
              Bcc     0.2406   128.365    45.804    42.818  0.7783  0.5648  0.2742
 
              Baa    -0.2958  -157.817   -56.313   -52.642 -0.0573  0.9019  0.4282
    33 H(1)   Bbb     0.1413    75.381    26.898    25.144 -0.5688 -0.3820  0.7284
              Bcc     0.1545    82.436    29.415    27.498  0.8205 -0.2018  0.5349
 
              Baa    -0.2926  -156.139   -55.714   -52.082  0.1461 -0.6743  0.7239
    34 H(1)   Bbb     0.1390    74.155    26.460    24.735  0.7626 -0.3894 -0.5166
              Bcc     0.1537    81.984    29.254    27.347  0.6302  0.6275  0.4573
 
              Baa    -0.2868  -153.005   -54.596   -51.037  0.8998  0.1520  0.4089
    35 H(1)   Bbb     0.1343    71.675    25.576    23.908 -0.3819 -0.1785  0.9068
[...]
 **** Fit       0.019055
 **** Fit       0.020264
 **** Fit       0.021794
 **** Fit       0.023146
 **** Fit       0.024003
 **** Fit       0.024082
 **** Fit       0.023259
 **** Fit       0.021890
 **** Fit       0.020471
 **** Fit       0.019326
 **** Fit       0.018627
 **** Fit       0.019721
 **** Fit       0.020621
 **** Fit       0.022015
 **** Fit       0.022448
 **** Fit       0.021450
 **** Fit       0.020134
 **** Fit       0.021023
 **** Fit       0.009547
 **** Fit       0.014319
 **** Fit       0.016083
 **** Fit       0.017702
 **** Fit       0.021670
 **** Fit       0.019307
 **** Fit       0.020003
 **** Fit       0.019181
 **** Fit       0.027782
 **** Fit       0.025742
 **** Fit       0.023490
 **** Fit       0.021483
 **** Fit       0.021413
 **** Fit       0.020597
 **** Fit       0.027245
 **** Fit       0.027025
 **** Fit       0.025941
 **** Fit       0.024360
 **** Fit       0.022735
 **** Fit       0.022056
 **** Fit       0.021148
 **** Fit       0.018101
 **** Fit       0.020963
 **** Fit       0.023159
 **** Fit       0.024694
 **** Fit       0.025487
 **** Fit       0.025403
 **** Fit       0.024536
 **** Fit       0.023275
 **** Fit       0.022024
 **** Fit       0.020843
 **** Fit       0.019611
 **** Fit       0.022049
 **** Fit       0.023545
 **** Fit       0.023871
 **** Fit       0.023179
 **** Fit       0.021398
 **** Fit       0.019692
 **** Fit       0.018706
 **** Fit       0.021069
 **** Fit       0.022185
 **** Fit       0.020262
 **** Fit      -0.028860
 **** Fit      -0.028071
 **** Fit      -0.024195
 **** Fit      -0.021870
 **** Fit      -0.022297
 **** Fit      -0.025726
 **** Fit      -0.036037
 **** Fit      -0.029143
 **** Fit      -0.020503
 **** Fit      -0.018009
 **** Fit      -0.017074
 **** Fit      -0.017594
 **** Fit      -0.019649
 **** Fit      -0.023594
 **** Fit      -0.037780
 **** Fit      -0.030710
 **** Fit      -0.024734
 **** Fit      -0.017396
 **** Fit      -0.014940
 **** Fit      -0.013639
 **** Fit      -0.013319
 **** Fit      -0.013908
 **** Fit      -0.015448
 **** Fit      -0.018129
 **** Fit      -0.026883
 **** Fit      -0.021277
 **** Fit      -0.014650
 **** Fit      -0.012317
 **** Fit      -0.010932
 **** Fit      -0.010305
 **** Fit      -0.010331
 **** Fit      -0.010970
 **** Fit      -0.012249
 **** Fit      -0.014283
 **** Fit      -0.023469
 **** Fit      -0.018224
 **** Fit      -0.012138
 **** Fit      -0.010048
 **** Fit      -0.008713
 **** Fit      -0.007966
 **** Fit      -0.007703
 **** Fit      -0.007865
 **** Fit      -0.008424
 **** Fit      -0.009388
 **** Fit      -0.026337
 **** Fit      -0.019774
 **** Fit      -0.015243
 **** Fit      -0.009793
 **** Fit      -0.007932
 **** Fit      -0.006706
 **** Fit      -0.005966
 **** Fit      -0.005617
 **** Fit      -0.005597
 **** Fit      -0.005866
 **** Fit      -0.006401
 **** Fit      -0.022321
 **** Fit      -0.016497
 **** Fit      -0.012523
 **** Fit      -0.007579
 **** Fit      -0.006022
 **** Fit      -0.004956
 **** Fit      -0.004268
 **** Fit      -0.003880
 **** Fit      -0.003736
 **** Fit      -0.003796
 **** Fit      -0.004025
 **** Fit      -0.017525
 **** Fit      -0.012971
 **** Fit      -0.009803
 **** Fit      -0.005471
 **** Fit      -0.004226
 **** Fit      -0.003340
 **** Fit      -0.002735
 **** Fit      -0.002351
 **** Fit      -0.002142
 **** Fit      -0.002070
 **** Fit      -0.012834
 **** Fit      -0.009558
 **** Fit      -0.007191
 **** Fit      -0.003439
 **** Fit      -0.002483
 **** Fit      -0.001774
 **** Fit      -0.001260
 **** Fit      -0.000898
 **** Fit      -0.000649
 **** Fit      -0.011194
 **** Fit      -0.008500
 **** Fit      -0.006360
 **** Fit      -0.004704
 **** Fit      -0.001442
 **** Fit      -0.000779
 **** Fit      -0.000238
 **** Fit       0.000198
 **** Fit      -0.003139
 **** Fit      -0.002236
 **** Fit      -0.022945
 **** Fit      -0.024708
 **** Fit      -0.028374
 **** Fit      -0.016612
 **** Fit      -0.016875
 **** Fit      -0.017844
 **** Fit      -0.019716
 **** Fit      -0.022800
 **** Fit      -0.012078
 **** Fit      -0.012398
 **** Fit      -0.013113
 **** Fit      -0.014350
 **** Fit      -0.016272
 **** Fit      -0.019108
 **** Fit      -0.023207
 **** Fit      -0.008599
 **** Fit      -0.008923
 **** Fit      -0.009465
 **** Fit      -0.010310
 **** Fit      -0.011550
 **** Fit      -0.013295
 **** Fit      -0.015688
 **** Fit      -0.018924
 **** Fit      -0.005703
 **** Fit      -0.005999
 **** Fit      -0.006383
 **** Fit      -0.006927
 **** Fit      -0.007700
 **** Fit      -0.008772
 **** Fit      -0.010216
 **** Fit      -0.012117
 **** Fit      -0.014570
 **** Fit      -0.017684
 **** Fit      -0.003653
 **** Fit      -0.004000
 **** Fit      -0.004405
 **** Fit      -0.004926
 **** Fit      -0.005617
 **** Fit      -0.006527
 **** Fit      -0.007702
 **** Fit      -0.009184
 **** Fit      -0.011006
 **** Fit      -0.013180
 **** Fit      -0.015662
 **** Fit      -0.001774
 **** Fit      -0.002166
 **** Fit      -0.002552
 **** Fit      -0.002987
 **** Fit      -0.003522
 **** Fit      -0.004198
 **** Fit      -0.005047
 **** Fit      -0.006096
 **** Fit      -0.007359
 **** Fit      -0.008828
 **** Fit      -0.010457
 **** Fit      -0.012130
 **** Fit      -0.000846
 **** Fit      -0.001273
 **** Fit      -0.001723
 **** Fit      -0.002247
 **** Fit      -0.002882
 **** Fit      -0.003655
 **** Fit      -0.004583
 **** Fit      -0.005663
 **** Fit      -0.006869
 **** Fit      -0.008142
 **** Fit      -0.009380
 **** Fit       0.000073
 **** Fit      -0.000409
 **** Fit      -0.000906
 **** Fit      -0.001466
 **** Fit      -0.002124
 **** Fit      -0.002899
 **** Fit      -0.003794
 **** Fit      -0.004795
 **** Fit      -0.005879
 **** Fit      -0.007043
 **** Fit       0.000740
 **** Fit       0.000202
 **** Fit      -0.000341
 **** Fit      -0.000935
 **** Fit      -0.001610
 **** Fit      -0.002377
 **** Fit      -0.003243
 **** Fit      -0.004223
 **** Fit       0.000873
 **** Fit       0.000249
 **** Fit      -0.000401
 **** Fit      -0.001115
 **** Fit      -0.001919
 **** Fit       0.004954
 **** Fit       0.004635
 **** Fit       0.004481
 **** Fit       0.004401
 **** Fit       0.004336
 **** Fit       0.004246
 **** Fit       0.004107
 **** Fit       0.003903
 **** Fit       0.005577
 **** Fit       0.006522
 **** Fit       0.005989
 **** Fit       0.005663
 **** Fit       0.005443
 **** Fit       0.005260
 **** Fit       0.005069
 **** Fit       0.004839
 **** Fit       0.004554
 **** Fit       0.004209
 **** Fit       0.003805
 **** Fit       0.003349
 **** Fit       0.011148
 **** Fit       0.008855
 **** Fit       0.007408
 **** Fit       0.007893
 **** Fit       0.007207
 **** Fit       0.006745
 **** Fit       0.006407
 **** Fit       0.006123
 **** Fit       0.005844
 **** Fit       0.005541
 **** Fit       0.005197
 **** Fit       0.004807
 **** Fit       0.004375
 **** Fit       0.003910
 **** Fit       0.003422
 **** Fit       0.016099
 **** Fit       0.012834
 **** Fit       0.010515
 **** Fit       0.008937
 **** Fit       0.009025
 **** Fit       0.008206
 **** Fit       0.007627
 **** Fit       0.007186
 **** Fit       0.006806
 **** Fit       0.006437
 **** Fit       0.006052
 **** Fit       0.005641
 **** Fit       0.005210
 **** Fit       0.004778
 **** Fit       0.004373
 **** Fit       0.004038
 **** Fit       0.003831
 **** Fit       0.003843
 **** Fit       0.020683
 **** Fit       0.017327
 **** Fit       0.014309
 **** Fit       0.011941
 **** Fit       0.010221
 **** Fit       0.009898
 **** Fit       0.008993
 **** Fit       0.008329
 **** Fit       0.007808
 **** Fit       0.007355
 **** Fit       0.006927
 **** Fit       0.006508
 **** Fit       0.006109
 **** Fit       0.005764
 **** Fit       0.005529
 **** Fit       0.005491
 **** Fit       0.005773
 **** Fit       0.006567
 **** Fit       0.008146
 **** Fit       0.019208
 **** Fit       0.018973
 **** Fit       0.017254
 **** Fit       0.014994
 **** Fit       0.012869
 **** Fit       0.011161
 **** Fit       0.010499
 **** Fit       0.009522
 **** Fit       0.008791
 **** Fit       0.008211
 **** Fit       0.007721
 **** Fit       0.007305
 **** Fit       0.006996
 **** Fit       0.006876
 **** Fit       0.007075
 **** Fit       0.007772
 **** Fit       0.009164
 **** Fit       0.011305
 **** Fit       0.013776
 **** Fit       0.015607
 **** Fit       0.015989
 **** Fit       0.015015
 **** Fit       0.013406
 **** Fit       0.011804
 **** Fit       0.010819
 **** Fit       0.009759
 **** Fit       0.008982
 **** Fit       0.008434
 **** Fit       0.008148
 **** Fit       0.008278
 **** Fit       0.009060
 **** Fit       0.010616
 **** Fit       0.012520
 **** Fit       0.013664
 **** Fit       0.013367
 **** Fit       0.012146
 **** Fit       0.010848
 **** Fit       0.009759
 **** Fit       0.009334
 **** Fit       0.009985
 **** Fit       0.011476
 **** Fit       0.011904
 **** Fit       0.010575
 **** Fit      -0.000460
 **** Fit      -0.002329
 **** Fit      -0.004860
 **** Fit      -0.008306
 **** Fit       0.001173
 **** Fit      -0.000050
 **** Fit      -0.001648
 **** Fit      -0.003836
 **** Fit      -0.006871
 **** Fit      -0.011107
 **** Fit       0.002219
 **** Fit       0.001367
 **** Fit       0.000354
 **** Fit      -0.000981
 **** Fit      -0.002801
 **** Fit      -0.005303
 **** Fit      -0.008764
 **** Fit      -0.013608
 **** Fit       0.002584
 **** Fit       0.001893
 **** Fit       0.001096
 **** Fit       0.000055
 **** Fit      -0.001370
 **** Fit      -0.003332
 **** Fit      -0.006037
 **** Fit      -0.009783
 **** Fit      -0.015053
 **** Fit       0.002783
 **** Fit       0.002223
 **** Fit       0.001600
 **** Fit       0.000796
 **** Fit      -0.000299
 **** Fit      -0.001806
 **** Fit      -0.003868
 **** Fit      -0.006683
 **** Fit      -0.010542
 **** Fit      -0.015915
 **** Fit       0.002738
 **** Fit       0.002267
 **** Fit       0.001735
 **** Fit       0.001043
 **** Fit       0.000094
 **** Fit      -0.001212
 **** Fit      -0.002997
 **** Fit      -0.005412
 **** Fit      -0.008676
 **** Fit      -0.013120
 **** Fit      -0.019280
 **** Fit       0.002429
 **** Fit       0.001983
 **** Fit       0.001433
 **** Fit       0.000681
 **** Fit      -0.000370
 **** Fit      -0.001825
 **** Fit      -0.003811
 **** Fit      -0.006495
 **** Fit      -0.010114
 **** Fit      -0.015025
 **** Fit      -0.021794
 **** Fit       0.002372
 **** Fit       0.001947
 **** Fit       0.001451
 **** Fit       0.000781
 **** Fit      -0.000165
 **** Fit      -0.001493
 **** Fit      -0.003324
 **** Fit      -0.005810
 **** Fit      -0.009151
 **** Fit      -0.013634
 **** Fit      -0.019672
 **** Fit       0.001784
 **** Fit       0.001312
 **** Fit       0.000706
 **** Fit      -0.000142
 **** Fit      -0.001337
 **** Fit      -0.002992
 **** Fit      -0.005238
 **** Fit      -0.008234
 **** Fit      -0.012181
 **** Fit      -0.017328
 **** Fit      -0.023940
 **** Fit       0.001348
 **** Fit       0.000802
 **** Fit       0.000100
 **** Fit      -0.000888
 **** Fit      -0.002294
 **** Fit      -0.004248
 **** Fit      -0.006889
 **** Fit      -0.010365
 **** Fit      -0.014807
 **** Fit      -0.020243
 **** Fit       0.000160
 **** Fit      -0.000663
 **** Fit      -0.001822
 **** Fit      -0.003468
 **** Fit      -0.005732
 **** Fit      -0.008716
 **** Fit      -0.012444
 **** Fit      -0.016740
 **** Fit      -0.000805
 **** Fit      -0.001902
 **** Fit      -0.003476
 **** Fit      -0.005680
 **** Fit      -0.008553
 **** Fit      -0.011907
 **** Fit      -0.002317
 **** Fit      -0.004081
 **** Fit      -0.006574
 **** Fit       0.005970
 **** Fit       0.006143
 **** Fit       0.004892
 **** Fit       0.004978
 **** Fit       0.004951
 **** Fit       0.004121
 **** Fit       0.004646
 **** Fit       0.004054
 **** Fit       0.004320
 **** Fit       0.004368
 **** Fit       0.004258
 **** Fit       0.004023
 **** Fit       0.000158
 **** Fit       0.002297
 **** Fit       0.003454
 **** Fit       0.003267
 **** Fit       0.003696
 **** Fit       0.003821
 **** Fit       0.003732
 **** Fit       0.003479
 **** Fit       0.003093
 **** Fit      -0.012680
 **** Fit      -0.006233
 **** Fit      -0.001901
 **** Fit       0.000793
 **** Fit       0.002384
 **** Fit       0.002436
 **** Fit       0.003021
 **** Fit       0.003200
 **** Fit       0.003088
 **** Fit       0.002753
 **** Fit       0.002233
 **** Fit       0.001546
 **** Fit      -0.024377
 **** Fit      -0.026362
 **** Fit      -0.014794
 **** Fit      -0.008765
 **** Fit      -0.004039
 **** Fit      -0.000785
 **** Fit       0.001259
 **** Fit       0.001515
 **** Fit       0.002224
 **** Fit       0.002427
 **** Fit       0.002257
 **** Fit       0.001792
 **** Fit       0.001067
 **** Fit       0.000076
 **** Fit      -0.001235
 **** Fit      -0.013604
 **** Fit      -0.015887
 **** Fit      -0.017681
 **** Fit      -0.019012
 **** Fit      -0.019415
 **** Fit      -0.018015
 **** Fit      -0.014582
 **** Fit      -0.010040
 **** Fit      -0.005666
 **** Fit      -0.002231
 **** Fit       0.000109
 **** Fit       0.000477
 **** Fit       0.001275
 **** Fit       0.001419
 **** Fit       0.001057
 **** Fit       0.000271
 **** Fit      -0.000920
 **** Fit      -0.002548
 **** Fit      -0.004629
 **** Fit      -0.007047
 **** Fit      -0.009495
 **** Fit      -0.011599
 **** Fit      -0.013101
 **** Fit      -0.013741
 **** Fit      -0.013017
 **** Fit      -0.010635
 **** Fit      -0.007191
 **** Fit      -0.003784
 **** Fit      -0.001166
 **** Fit      -0.000697
 **** Fit       0.000120
 **** Fit      -0.000062
 **** Fit      -0.001052
 **** Fit      -0.002728
 **** Fit      -0.004918
 **** Fit      -0.007194
 **** Fit      -0.008912
 **** Fit      -0.009431
 **** Fit      -0.008227
 **** Fit      -0.005548
 **** Fit      -0.002674
 **** Fit      -0.002023
 **** Fit      -0.001555
 **** Fit      -0.003017
 **** Fit      -0.005232
 **** Fit      -0.006096
 **** Fit      -0.004343
 **** Fit      -0.003525
 **** Fit       0.005569
 **** Fit       0.007641
 **** Fit       0.006615
 **** Fit       0.005111
 **** Fit       0.009579
 **** Fit       0.008287
 **** Fit       0.007007
 **** Fit       0.005792
 **** Fit       0.004626
 **** Fit       0.003523
 **** Fit       0.011072
 **** Fit       0.009415
 **** Fit       0.008130
 **** Fit       0.007053
 **** Fit       0.006048
 **** Fit       0.005056
 **** Fit       0.004082
 **** Fit       0.011838
 **** Fit       0.009945
 **** Fit       0.008646
 **** Fit       0.007648
 **** Fit       0.006767
 **** Fit       0.005908
 **** Fit       0.005028
 **** Fit       0.004125
 **** Fit       0.011702
 **** Fit       0.009862
 **** Fit       0.008671
 **** Fit       0.007788
 **** Fit       0.007030
 **** Fit       0.006295
 **** Fit       0.005536
 **** Fit       0.004735
 **** Fit       0.003894
 **** Fit       0.010738
 **** Fit       0.009297
 **** Fit       0.008363
 **** Fit       0.007661
 **** Fit       0.007053
 **** Fit       0.006459
 **** Fit       0.005838
 **** Fit       0.005173
 **** Fit       0.004465
 **** Fit       0.003723
 **** Fit       0.009344
 **** Fit       0.008398
 **** Fit       0.007759
 **** Fit       0.007246
 **** Fit       0.006771
 **** Fit       0.006282
 **** Fit       0.005751
 **** Fit       0.005170
 **** Fit       0.004549
 **** Fit       0.003906
 **** Fit       0.008048
 **** Fit       0.007517
 **** Fit       0.007130
 **** Fit       0.006784
 **** Fit       0.006430
 **** Fit       0.006039
 **** Fit       0.005599
 **** Fit       0.005108
 **** Fit       0.004583
 **** Fit       0.004053
 **** Fit       0.007175
 **** Fit       0.006827
 **** Fit       0.006571
 **** Fit       0.006320
 **** Fit       0.006039
 **** Fit       0.005713
 **** Fit       0.005334
 **** Fit       0.004910
 **** Fit       0.004463
 **** Fit       0.006731
 **** Fit       0.006373
 **** Fit       0.006127
 **** Fit       0.005890
 **** Fit       0.005624
 **** Fit       0.005311
 **** Fit       0.004951
 **** Fit       0.004562
 **** Fit       0.007471
 **** Fit       0.006552
 **** Fit       0.006103
 **** Fit       0.005799
 **** Fit       0.005526
 **** Fit       0.005237
 **** Fit       0.004913
 -----------------------------------------------------------------
 Leave Link  602 at Fri Nov 22 04:38:09 2019, MaxMem=   33554432 cpu:       5.5

 Test job not archived.
 1\1\GINC-MOSURA\FOpt\RHF\6-31G(d)\C20H36N4O4\MARIE\22-Nov-2019\0\\#HF/
 6-31G* SCF=tight Test Pop=MK iop(6/33=2) iop(6/42=6) opt\\remark line 
 goes here\\0,1\C,-7.1324670009,-2.692545914,-0.6303327796\N,-6.6124152
 856,-1.6108277619,0.1821661062\C,-5.5821270481,-0.8639611923,-0.269439
 7315\O,-4.9720893333,-1.1538225254,-1.2641149949\C,-5.1242723155,0.326
 3073,0.6041561246\C,-6.2107518796,0.8793328873,1.5424707048\C,-3.93648
 66082,-0.1322130908,1.4954986239\C,-2.7919496152,-0.9813441654,0.91178
 46808\C,-1.8403455171,-0.3407216027,-0.1147518978\C,-1.099948337,0.869
 5022773,0.4004697176\C,0.1918206462,0.9878770621,0.6629862697\C,1.2805
 974905,-0.0421146785,0.5112017188\C,2.3134306846,0.3757751302,-0.54819
 56915\C,3.4884768172,-0.611476794,-0.7053425082\C,4.8215392133,-0.2336
 082312,-0.0084044769\C,4.658256467,-0.0758408026,1.5058569471\N,5.7464
 53768,-1.3312663338,-0.3212593104\C,7.0481015976,-1.3635479738,0.08256
 84532\C,7.7248250185,-2.7131176883,-0.0352934019\O,7.6224057774,-0.394
 3192051,0.4909011103\C,5.3199379374,1.0924661315,-0.6171437202\O,5.080
 3247974,2.1401404433,-0.0811231338\N,5.9148712862,1.0141844484,-1.8268
 36578\C,6.5096816653,2.1910958489,-2.4244545141\N,-4.6840392575,1.3964
 173701,-0.2825288361\C,-5.4774343547,1.8692964321,-1.2824889931\C,-4.7
 757986388,2.7356963158,-2.3038419362\O,-6.6489365766,1.6166159144,-1.3
 564814443\H,-7.5883580419,-2.3271998293,-1.5437817934\H,-7.8719441027,
 -3.2323750545,-0.0533653869\H,-6.3318714214,-3.3675249561,-0.894194761
 3\H,-7.2366262622,-1.199640659,0.8345257418\H,-6.502380332,0.147092176
 7,2.2884110186\H,-5.8087452709,1.7361104629,2.0700076167\H,-7.08275460
 39,1.2009366823,0.9920898354\H,-3.5355484931,0.7604745371,1.9673324726
 \H,-4.3710633742,-0.7199039446,2.2974476629\H,-2.1931197136,-1.2969464
 72,1.7627463829\H,-3.2014865717,-1.881763527,0.4712900542\H,-2.3956576
 619,-0.0877394075,-1.0121752785\H,-1.1357310961,-1.1043322789,-0.42057
 32729\H,-1.7031290416,1.746213768,0.584522849\H,0.5362030129,1.9444852
 585,1.0258037504\H,1.7718776779,-0.16617009,1.4725917682\H,0.869984467
 1,-1.0108995592,0.2501112895\H,2.6850696329,1.3686757707,-0.3256002148
 \H,1.7991162774,0.4534723834,-1.5008385033\H,3.7054760723,-0.745809654
 3,-1.7597483219\H,3.1882162263,-1.5872448859,-0.3264560787\H,3.9840719
 492,0.7339912621,1.7398705596\H,5.6106169639,0.1432539611,1.9668928346
 \H,4.2663686727,-0.9976972207,1.9258068791\H,5.3209184507,-2.210048509
 7,-0.5164285186\H,7.4885760025,-3.3076156272,0.8422369219\H,8.79435253
 53,-2.5664043882,-0.0725413465\H,7.3992958531,-3.2606880123,-0.9128455
 57\H,6.2709721172,0.1287098697,-2.0997241075\H,7.3837674952,2.52445155
 74,-1.8753958189\H,5.7882381993,2.9943035253,-2.4415754704\H,6.7972458
 116,1.9553465499,-3.4409942636\H,-3.7068495578,1.4675606818,-0.4387039
 029\H,-5.5035145247,3.3740064967,-2.7836315025\H,-4.330437732,2.092013
 1464,-3.0563695192\H,-3.9918110143,3.3399263849,-1.8617705272\\Version
 =EM64L-G09RevA.02\State=1-A\HF=-1295.6197662\RMSD=5.119e-09\RMSF=2.142
 e-06\Dipole=0.1849293,-2.0626811,0.0333114\Quadrupole=-11.8882567,7.93
 51545,3.9531022,-16.3008467,-27.6428475,-4.6959504\PG=C01 [X(C20H36N4O
 4)]\\@


 A COMPLEXITY IS MERELY A DISARRANGEMENT OF SIMPLICITIES.

                                    -- G. O. ABELL IN "EXPLORATION OF THE UNIVERSE"
 Job cpu time:  0 days  2 hours 47 minutes 56.3 seconds.
 File lengths (MBytes):  RWF=    156 Int=      0 D2E=      0 Chk=     17 Scr=      1
 Normal termination of Gaussian 09 at Fri Nov 22 04:38:09 2019.
