 Entering Gaussian System, Link 0=g09
 Input=18.gau
 Output=18.log
 Initial command:
 /home/marie/Utilities//g09/l1.exe /tmp/g09/Gau-22568.inp -scrdir=/tmp/g09/
 Entering Link 1 = /home/marie/Utilities//g09/l1.exe PID=     22570.
  
 Copyright (c) 1988,1990,1992,1993,1995,1998,2003,2009, Gaussian, Inc.
                  All Rights Reserved.
  
 This is part of the Gaussian(R) 09 program.  It is based on
 the Gaussian(R) 03 system (copyright 2003, Gaussian, Inc.),
 the Gaussian(R) 98 system (copyright 1998, Gaussian, Inc.),
 the Gaussian(R) 94 system (copyright 1995, Gaussian, Inc.),
 the Gaussian 92(TM) system (copyright 1992, Gaussian, Inc.),
 the Gaussian 90(TM) system (copyright 1990, Gaussian, Inc.),
 the Gaussian 88(TM) system (copyright 1988, Gaussian, Inc.),
 the Gaussian 86(TM) system (copyright 1986, Carnegie Mellon
 University), and the Gaussian 82(TM) system (copyright 1983,
 Carnegie Mellon University). Gaussian is a federally registered
 trademark of Gaussian, Inc.
  
 This software contains proprietary and confidential information,
 including trade secrets, belonging to Gaussian, Inc.
  
 This software is provided under written license and may be
 used, copied, transmitted, or stored only in accord with that
 written license.
  
 The following legend is applicable only to US Government
 contracts under FAR:
  
                    RESTRICTED RIGHTS LEGEND
  
 Use, reproduction and disclosure by the US Government is
 subject to restrictions as set forth in subparagraphs (a)
 and (c) of the Commercial Computer Software - Restricted
 Rights clause in FAR 52.227-19.
  
 Gaussian, Inc.
 340 Quinnipiac St., Bldg. 40, Wallingford CT 06492
  
  
 ---------------------------------------------------------------
 Warning -- This program may not be used in any manner that
 competes with the business of Gaussian, Inc. or will provide
 assistance to any competitor of Gaussian, Inc.  The licensee
 of this program is prohibited from giving any competitor of
 Gaussian, Inc. access to this program.  By using this program,
 the user acknowledges that Gaussian, Inc. is engaged in the
 business of creating and licensing software in the field of
 computational chemistry and represents and warrants to the
 licensee that it is not a competitor of Gaussian, Inc. and that
 it will not use this program in any manner prohibited above.
 ---------------------------------------------------------------
  

 Cite this work as:
 Gaussian 09, Revision A.02,
 M. J. Frisch, G. W. Trucks, H. B. Schlegel, G. E. Scuseria, 
 M. A. Robb, J. R. Cheeseman, G. Scalmani, V. Barone, B. Mennucci, 
 G. A. Petersson, H. Nakatsuji, M. Caricato, X. Li, H. P. Hratchian, 
 A. F. Izmaylov, J. Bloino, G. Zheng, J. L. Sonnenberg, M. Hada, 
 M. Ehara, K. Toyota, R. Fukuda, J. Hasegawa, M. Ishida, T. Nakajima, 
 Y. Honda, O. Kitao, H. Nakai, T. Vreven, J. A. Montgomery, Jr., 
 J. E. Peralta, F. Ogliaro, M. Bearpark, J. J. Heyd, E. Brothers, 
 K. N. Kudin, V. N. Staroverov, R. Kobayashi, J. Normand, 
 K. Raghavachari, A. Rendell, J. C. Burant, S. S. Iyengar, J. Tomasi, 
 M. Cossi, N. Rega, J. M. Millam, M. Klene, J. E. Knox, J. B. Cross, 
 V. Bakken, C. Adamo, J. Jaramillo, R. Gomperts, R. E. Stratmann, 
 O. Yazyev, A. J. Austin, R. Cammi, C. Pomelli, J. W. Ochterski, 
 R. L. Martin, K. Morokuma, V. G. Zakrzewski, G. A. Voth, 
 P. Salvador, J. J. Dannenberg, S. Dapprich, A. D. Daniels, 
 O. Farkas, J. B. Foresman, J. V. Ortiz, J. Cioslowski, 
 and D. J. Fox, Gaussian, Inc., Wallingford CT, 2009.
 
 ******************************************
 Gaussian 09:  EM64L-G09RevA.02 11-Jun-2009
                22-Nov-2019 
 ******************************************
 %chk=conf18
 ------------------------------------------------------------
 #HF/6-31G* SCF=tight Test Pop=MK iop(6/33=2) iop(6/42=6) opt
 ------------------------------------------------------------
 1/18=20,19=15,38=1/1,3;
 2/9=110,12=2,17=6,18=5,40=1/2;
 3/5=1,6=6,7=1,11=9,16=1,25=1,30=1,71=1/1,2,3;
 4//1;
 5/5=2,32=2,38=5/2;
 6/7=2,8=2,9=2,10=2,15=8,20=1,28=1,33=2,42=6/1,2;
 7//1,2,3,16;
 1/18=20,19=15/3(2);
 2/9=110/2;
 99//99;
 2/9=110/2;
 3/5=1,6=6,7=1,11=9,16=1,25=1,30=1,71=1/1,2,3;
 4/5=5,16=3/1;
 5/5=2,32=2,38=5/2;
 7//1,2,3,16;
 1/18=20,19=15/3(-5);
 2/9=110/2;
 6/7=2,8=2,9=2,10=2,15=8,19=2,20=1,28=1,33=2,42=6/1,2;
 99/9=1/99;
 ---------------------
 remark line goes here
 ---------------------
 Symbolic Z-matrix:
 Charge =  0 Multiplicity = 1
 C                    -7.227    -1.352    -0.211 
 N                    -6.065    -0.793     0.434 
 C                    -4.881    -0.651    -0.266 
 O                    -4.729    -1.133    -1.391 
 C                    -3.698     0.02      0.508 
 C                    -4.149     1.241     1.326 
 C                    -3.111    -1.07      1.447 
 C                    -1.903    -0.602     2.274 
 C                    -1.275    -1.722     3.11 
 C                    -0.672    -2.821     2.281 
 C                     0.551    -2.83      1.727 
 C                     1.582    -1.738     1.794 
 C                     1.814    -1.12      0.412 
 C                     2.83      0.029     0.486 
 C                     3.269     0.631    -0.885 
 C                     2.02      1.038    -1.686 
 N                     4.137     1.795    -0.567 
 C                     4.623     2.694    -1.487 
 C                     5.531     3.74     -0.897 
 O                     4.384     2.643    -2.689 
 C                     4.144    -0.416    -1.651 
 O                     4.625    -1.408    -1.104 
 N                     4.409    -0.104    -2.97 
 C                     5.33     -0.892    -3.745 
 N                    -2.681     0.353    -0.515 
 C                    -2.782     1.446    -1.351 
 C                    -1.791     1.437    -2.485 
 O                    -3.581     2.364    -1.206 
 H                    -6.958    -2.262    -0.754 
 H                    -7.628    -0.615    -0.913 
 H                    -7.973    -1.581     0.553 
 H                    -6.226    -0.197     1.234 
 H                    -4.876     1.853     0.781 
 H                    -4.639     0.939     2.259 
 H                    -3.301     1.882     1.593 
 H                    -2.825    -1.939     0.84 
 H                    -3.889    -1.427     2.134 
 H                    -2.219     0.191     2.961 
 H                    -1.141    -0.165     1.618 
 H                    -0.517    -1.295     3.776 
 H                    -2.033    -2.16      3.771 
 H                    -1.305    -3.695     2.128 
 H                     0.845    -3.712     1.157 
 H                     2.517    -2.168     2.171 
 H                     1.292    -0.954     2.5 
 H                     2.16     -1.894    -0.282 
 H                     0.859    -0.744     0.025 
 H                     2.398     0.829     1.103 
 H                     3.719    -0.317     1.033 
 H                     2.252     1.572    -2.612 
 H                     1.438     0.161    -1.987 
 H                     1.374     1.697    -1.095 
 H                     4.656     1.727     0.3 
 H                     5.361     3.856     0.177 
 H                     6.571     3.45     -1.069 
 H                     5.331     4.701    -1.379 
 H                     4.306     0.881    -3.224 
 H                     6.348    -0.675    -3.41 
 H                     5.122    -1.957    -3.61 
 H                     5.22     -0.62     -4.798 
 H                    -2.301    -0.468    -0.974 
 H                    -2.334     1.392    -3.433 
 H                    -1.194     2.352    -2.444 
 H                    -1.113     0.581    -2.429 
 

 GradGradGradGradGradGradGradGradGradGradGradGradGradGradGradGradGradGrad
 Berny optimization.
 Initialization pass.
                           ----------------------------
                           !    Initial Parameters    !
                           ! (Angstroms and Degrees)  !
 --------------------------                            --------------------------
 ! Name  Definition              Value          Derivative Info.                !
 --------------------------------------------------------------------------------
 ! R1    R(1,2)                  1.4418         estimate D2E/DX2                !
 ! R2    R(1,29)                 1.0933         estimate D2E/DX2                !
 ! R3    R(1,30)                 1.094          estimate D2E/DX2                !
 ! R4    R(1,31)                 1.0921         estimate D2E/DX2                !
 ! R5    R(2,3)                  1.3828         estimate D2E/DX2                !
 ! R6    R(2,32)                 1.0105         estimate D2E/DX2                !
 ! R7    R(3,4)                  1.2333         estimate D2E/DX2                !
 ! R8    R(3,5)                  1.5649         estimate D2E/DX2                !
 ! R9    R(5,6)                  1.5373         estimate D2E/DX2                !
 ! R10   R(5,7)                  1.5538         estimate D2E/DX2                !
 ! R11   R(5,25)                 1.4804         estimate D2E/DX2                !
 ! R12   R(6,33)                 1.0955         estimate D2E/DX2                !
 ! R13   R(6,34)                 1.0963         estimate D2E/DX2                !
 ! R14   R(6,35)                 1.096          estimate D2E/DX2                !
 ! R15   R(7,8)                  1.537          estimate D2E/DX2                !
 ! R16   R(7,36)                 1.0979         estimate D2E/DX2                !
 ! R17   R(7,37)                 1.0976         estimate D2E/DX2                !
 ! R18   R(8,9)                  1.5322         estimate D2E/DX2                !
 ! R19   R(8,38)                 1.0958         estimate D2E/DX2                !
 ! R20   R(8,39)                 1.0963         estimate D2E/DX2                !
 ! R21   R(9,10)                 1.5029         estimate D2E/DX2                !
 ! R22   R(9,40)                 1.0957         estimate D2E/DX2                !
 ! R23   R(9,41)                 1.097          estimate D2E/DX2                !
 ! R24   R(10,11)                1.3427         estimate D2E/DX2                !
 ! R25   R(10,42)                1.0899         estimate D2E/DX2                !
 ! R26   R(11,12)                1.5033         estimate D2E/DX2                !
 ! R27   R(11,43)                1.0905         estimate D2E/DX2                !
 ! R28   R(12,13)                1.5316         estimate D2E/DX2                !
 ! R29   R(12,44)                1.096          estimate D2E/DX2                !
 ! R30   R(12,45)                1.0942         estimate D2E/DX2                !
 ! R31   R(13,14)                1.5356         estimate D2E/DX2                !
 ! R32   R(13,46)                1.0956         estimate D2E/DX2                !
 ! R33   R(13,47)                1.0969         estimate D2E/DX2                !
 ! R34   R(14,15)                1.5604         estimate D2E/DX2                !
 ! R35   R(14,48)                1.0988         estimate D2E/DX2                !
 ! R36   R(14,49)                1.0997         estimate D2E/DX2                !
 ! R37   R(15,16)                1.5386         estimate D2E/DX2                !
 ! R38   R(15,17)                1.4864         estimate D2E/DX2                !
 ! R39   R(15,21)                1.5648         estimate D2E/DX2                !
 ! R40   R(16,50)                1.0938         estimate D2E/DX2                !
 ! R41   R(16,51)                1.0947         estimate D2E/DX2                !
 ! R42   R(16,52)                1.0958         estimate D2E/DX2                !
 ! R43   R(17,18)                1.3751         estimate D2E/DX2                !
 ! R44   R(17,53)                1.0128         estimate D2E/DX2                !
 ! R45   R(18,19)                1.5055         estimate D2E/DX2                !
 ! R46   R(18,20)                1.2266         estimate D2E/DX2                !
 ! R47   R(19,54)                1.0935         estimate D2E/DX2                !
 ! R48   R(19,55)                1.0933         estimate D2E/DX2                !
 ! R49   R(19,56)                1.0935         estimate D2E/DX2                !
 ! R50   R(20,57)                1.8431         estimate D2E/DX2                !
 ! R51   R(21,22)                1.2307         estimate D2E/DX2                !
 ! R52   R(21,23)                1.3811         estimate D2E/DX2                !
 ! R53   R(23,24)                1.4387         estimate D2E/DX2                !
 ! R54   R(23,57)                1.0224         estimate D2E/DX2                !
 ! R55   R(24,58)                1.0935         estimate D2E/DX2                !
 ! R56   R(24,59)                1.0935         estimate D2E/DX2                !
 ! R57   R(24,60)                1.0931         estimate D2E/DX2                !
 ! R58   R(25,26)                1.3798         estimate D2E/DX2                !
 ! R59   R(25,61)                1.0145         estimate D2E/DX2                !
 ! R60   R(26,27)                1.506          estimate D2E/DX2                !
 ! R61   R(26,28)                1.2256         estimate D2E/DX2                !
 ! R62   R(27,62)                1.0934         estimate D2E/DX2                !
 ! R63   R(27,63)                1.0933         estimate D2E/DX2                !
 ! R64   R(27,64)                1.0934         estimate D2E/DX2                !
 ! A1    A(2,1,29)             110.2794         estimate D2E/DX2                !
 ! A2    A(2,1,30)             108.7412         estimate D2E/DX2                !
 ! A3    A(2,1,31)             108.5948         estimate D2E/DX2                !
 ! A4    A(29,1,30)            109.4038         estimate D2E/DX2                !
 ! A5    A(29,1,31)            109.9372         estimate D2E/DX2                !
 ! A6    A(30,1,31)            109.8643         estimate D2E/DX2                !
 ! A7    A(1,2,3)              120.2281         estimate D2E/DX2                !
 ! A8    A(1,2,32)             117.0284         estimate D2E/DX2                !
 ! A9    A(3,2,32)             118.4655         estimate D2E/DX2                !
 ! A10   A(2,3,4)              121.8146         estimate D2E/DX2                !
 ! A11   A(2,3,5)              116.1649         estimate D2E/DX2                !
 ! A12   A(4,3,5)              121.7075         estimate D2E/DX2                !
 ! A13   A(3,5,6)              112.4553         estimate D2E/DX2                !
 ! A14   A(3,5,7)              106.4809         estimate D2E/DX2                !
 ! A15   A(3,5,25)             105.9019         estimate D2E/DX2                !
 ! A16   A(6,5,7)              110.2689         estimate D2E/DX2                !
 ! A17   A(6,5,25)             112.9895         estimate D2E/DX2                !
 ! A18   A(7,5,25)             108.4127         estimate D2E/DX2                !
 ! A19   A(5,6,33)             111.9426         estimate D2E/DX2                !
 ! A20   A(5,6,34)             111.4187         estimate D2E/DX2                !
 ! A21   A(5,6,35)             111.5396         estimate D2E/DX2                !
 ! A22   A(33,6,34)            106.3007         estimate D2E/DX2                !
 ! A23   A(33,6,35)            107.9341         estimate D2E/DX2                !
 ! A24   A(34,6,35)            107.4342         estimate D2E/DX2                !
 ! A25   A(5,7,8)              114.1097         estimate D2E/DX2                !
 ! A26   A(5,7,36)             108.6349         estimate D2E/DX2                !
 ! A27   A(5,7,37)             109.7939         estimate D2E/DX2                !
 ! A28   A(8,7,36)             109.497          estimate D2E/DX2                !
 ! A29   A(8,7,37)             108.6246         estimate D2E/DX2                !
 ! A30   A(36,7,37)            105.8579         estimate D2E/DX2                !
 ! A31   A(7,8,9)              113.1504         estimate D2E/DX2                !
 ! A32   A(7,8,38)             109.3332         estimate D2E/DX2                !
 ! A33   A(7,8,39)             110.2242         estimate D2E/DX2                !
 ! A34   A(9,8,38)             107.7654         estimate D2E/DX2                !
 ! A35   A(9,8,39)             109.4488         estimate D2E/DX2                !
 ! A36   A(38,8,39)            106.6857         estimate D2E/DX2                !
 ! A37   A(8,9,10)             113.4541         estimate D2E/DX2                !
 ! A38   A(8,9,40)             109.2892         estimate D2E/DX2                !
 ! A39   A(8,9,41)             109.7198         estimate D2E/DX2                !
 ! A40   A(10,9,40)            110.0419         estimate D2E/DX2                !
 ! A41   A(10,9,41)            108.5209         estimate D2E/DX2                !
 ! A42   A(40,9,41)            105.5086         estimate D2E/DX2                !
 ! A43   A(9,10,11)            126.725          estimate D2E/DX2                !
 ! A44   A(9,10,42)            115.518          estimate D2E/DX2                !
 ! A45   A(11,10,42)           117.7563         estimate D2E/DX2                !
 ! A46   A(10,11,12)           126.9735         estimate D2E/DX2                !
 ! A47   A(10,11,43)           117.8173         estimate D2E/DX2                !
 ! A48   A(12,11,43)           115.2077         estimate D2E/DX2                !
 ! A49   A(11,12,13)           110.9027         estimate D2E/DX2                !
 ! A50   A(11,12,44)           108.3856         estimate D2E/DX2                !
 ! A51   A(11,12,45)           111.5598         estimate D2E/DX2                !
 ! A52   A(13,12,44)           109.8444         estimate D2E/DX2                !
 ! A53   A(13,12,45)           109.4665         estimate D2E/DX2                !
 ! A54   A(44,12,45)           106.5753         estimate D2E/DX2                !
 ! A55   A(12,13,14)           111.0187         estimate D2E/DX2                !
 ! A56   A(12,13,46)           109.5329         estimate D2E/DX2                !
 ! A57   A(12,13,47)           108.9532         estimate D2E/DX2                !
 ! A58   A(14,13,46)           110.4982         estimate D2E/DX2                !
 ! A59   A(14,13,47)           109.6679         estimate D2E/DX2                !
 ! A60   A(46,13,47)           107.075          estimate D2E/DX2                !
 ! A61   A(13,14,15)           115.6258         estimate D2E/DX2                !
 ! A62   A(13,14,48)           108.163          estimate D2E/DX2                !
 ! A63   A(13,14,49)           108.8708         estimate D2E/DX2                !
 ! A64   A(15,14,48)           108.8505         estimate D2E/DX2                !
 ! A65   A(15,14,49)           109.3296         estimate D2E/DX2                !
 ! A66   A(48,14,49)           105.5222         estimate D2E/DX2                !
 ! A67   A(14,15,16)           109.335          estimate D2E/DX2                !
 ! A68   A(14,15,17)           106.167          estimate D2E/DX2                !
 ! A69   A(14,15,21)           109.2257         estimate D2E/DX2                !
 ! A70   A(16,15,17)           112.2267         estimate D2E/DX2                !
 ! A71   A(16,15,21)           112.091          estimate D2E/DX2                !
 ! A72   A(17,15,21)           107.5871         estimate D2E/DX2                !
 ! A73   A(15,16,50)           113.434          estimate D2E/DX2                !
 ! A74   A(15,16,51)           111.2721         estimate D2E/DX2                !
 ! A75   A(15,16,52)           110.9071         estimate D2E/DX2                !
 ! A76   A(50,16,51)           105.729          estimate D2E/DX2                !
 ! A77   A(50,16,52)           106.7391         estimate D2E/DX2                !
 ! A78   A(51,16,52)           108.4598         estimate D2E/DX2                !
 ! A79   A(15,17,18)           125.1157         estimate D2E/DX2                !
 ! A80   A(15,17,53)           115.4563         estimate D2E/DX2                !
 ! A81   A(18,17,53)           115.8198         estimate D2E/DX2                !
 ! A82   A(17,18,19)           113.9033         estimate D2E/DX2                !
 ! A83   A(17,18,20)           124.0279         estimate D2E/DX2                !
 ! A84   A(19,18,20)           122.0344         estimate D2E/DX2                !
 ! A85   A(18,19,54)           111.3966         estimate D2E/DX2                !
 ! A86   A(18,19,55)           109.1331         estimate D2E/DX2                !
 ! A87   A(18,19,56)           109.1183         estimate D2E/DX2                !
 ! A88   A(54,19,55)           109.301          estimate D2E/DX2                !
 ! A89   A(54,19,56)           108.1339         estimate D2E/DX2                !
 ! A90   A(55,19,56)           109.739          estimate D2E/DX2                !
 ! A91   A(15,21,22)           122.7036         estimate D2E/DX2                !
 ! A92   A(15,21,23)           115.0659         estimate D2E/DX2                !
 ! A93   A(22,21,23)           122.1129         estimate D2E/DX2                !
 ! A94   A(21,23,24)           120.9025         estimate D2E/DX2                !
 ! A95   A(21,23,57)           115.8222         estimate D2E/DX2                !
 ! A96   A(24,23,57)           117.2801         estimate D2E/DX2                !
 ! A97   A(23,24,58)           108.7996         estimate D2E/DX2                !
 ! A98   A(23,24,59)           110.1926         estimate D2E/DX2                !
 ! A99   A(23,24,60)           108.5547         estimate D2E/DX2                !
 ! A100  A(58,24,59)           109.4237         estimate D2E/DX2                !
 ! A101  A(58,24,60)           109.8423         estimate D2E/DX2                !
 ! A102  A(59,24,60)           110.007          estimate D2E/DX2                !
 ! A103  A(5,25,26)            123.1328         estimate D2E/DX2                !
 ! A104  A(5,25,61)            112.8263         estimate D2E/DX2                !
 ! A105  A(26,25,61)           113.2269         estimate D2E/DX2                !
 ! A106  A(25,26,27)           113.7863         estimate D2E/DX2                !
 ! A107  A(25,26,28)           124.7067         estimate D2E/DX2                !
 ! A108  A(27,26,28)           121.5023         estimate D2E/DX2                !
 ! A109  A(26,27,62)           109.0442         estimate D2E/DX2                !
 ! A110  A(26,27,63)           109.0307         estimate D2E/DX2                !
 ! A111  A(26,27,64)           111.9711         estimate D2E/DX2                !
 ! A112  A(62,27,63)           109.7629         estimate D2E/DX2                !
 ! A113  A(62,27,64)           108.67           estimate D2E/DX2                !
 ! A114  A(63,27,64)           108.3414         estimate D2E/DX2                !
 ! D1    D(29,1,2,3)            47.1562         estimate D2E/DX2                !
 ! D2    D(29,1,2,32)         -156.4211         estimate D2E/DX2                !
 ! D3    D(30,1,2,3)           -72.8023         estimate D2E/DX2                !
 ! D4    D(30,1,2,32)           83.6203         estimate D2E/DX2                !
 ! D5    D(31,1,2,3)           167.6776         estimate D2E/DX2                !
 ! D6    D(31,1,2,32)          -35.8997         estimate D2E/DX2                !
 ! D7    D(1,2,3,4)             -8.749          estimate D2E/DX2                !
 ! D8    D(1,2,3,5)            177.5743         estimate D2E/DX2                !
 ! D9    D(32,2,3,4)          -164.8391         estimate D2E/DX2                !
 ! D10   D(32,2,3,5)            21.4842         estimate D2E/DX2                !
 ! D11   D(2,3,5,6)            -42.9202         estimate D2E/DX2                !
 ! D12   D(2,3,5,7)             77.956          estimate D2E/DX2                !
 ! D13   D(2,3,5,25)          -166.7803         estimate D2E/DX2                !
 ! D14   D(4,3,5,6)            143.3957         estimate D2E/DX2                !
 ! D15   D(4,3,5,7)            -95.728          estimate D2E/DX2                !
 ! D16   D(4,3,5,25)            19.5357         estimate D2E/DX2                !
 ! D17   D(3,5,6,33)           -40.5928         estimate D2E/DX2                !
 ! D18   D(3,5,6,34)            78.2938         estimate D2E/DX2                !
 ! D19   D(3,5,6,35)          -161.6511         estimate D2E/DX2                !
 ! D20   D(7,5,6,33)          -159.2694         estimate D2E/DX2                !
 ! D21   D(7,5,6,34)           -40.3827         estimate D2E/DX2                !
 ! D22   D(7,5,6,35)            79.6724         estimate D2E/DX2                !
 ! D23   D(25,5,6,33)           79.2349         estimate D2E/DX2                !
 ! D24   D(25,5,6,34)         -161.8785         estimate D2E/DX2                !
 ! D25   D(25,5,6,35)          -41.8233         estimate D2E/DX2                !
 ! D26   D(3,5,7,8)            178.5829         estimate D2E/DX2                !
 ! D27   D(3,5,7,36)            56.1169         estimate D2E/DX2                !
 ! D28   D(3,5,7,37)           -59.2139         estimate D2E/DX2                !
 ! D29   D(6,5,7,8)            -59.1492         estimate D2E/DX2                !
 ! D30   D(6,5,7,36)           178.3848         estimate D2E/DX2                !
 ! D31   D(6,5,7,37)            63.054          estimate D2E/DX2                !
 ! D32   D(25,5,7,8)            65.0274         estimate D2E/DX2                !
 ! D33   D(25,5,7,36)          -57.4385         estimate D2E/DX2                !
 ! D34   D(25,5,7,37)         -172.7693         estimate D2E/DX2                !
 ! D35   D(3,5,25,26)           78.1698         estimate D2E/DX2                !
 ! D36   D(3,5,25,61)          -63.6148         estimate D2E/DX2                !
 ! D37   D(6,5,25,26)          -45.3548         estimate D2E/DX2                !
 ! D38   D(6,5,25,61)          172.8607         estimate D2E/DX2                !
 ! D39   D(7,5,25,26)         -167.8926         estimate D2E/DX2                !
 ! D40   D(7,5,25,61)           50.3229         estimate D2E/DX2                !
 ! D41   D(5,7,8,9)           -175.5485         estimate D2E/DX2                !
 ! D42   D(5,7,8,38)            64.3399         estimate D2E/DX2                !
 ! D43   D(5,7,8,39)           -52.6303         estimate D2E/DX2                !
 ! D44   D(36,7,8,9)           -53.5551         estimate D2E/DX2                !
 ! D45   D(36,7,8,38)         -173.6667         estimate D2E/DX2                !
 ! D46   D(36,7,8,39)           69.363          estimate D2E/DX2                !
 ! D47   D(37,7,8,9)            61.6093         estimate D2E/DX2                !
 ! D48   D(37,7,8,38)          -58.5024         estimate D2E/DX2                !
 ! D49   D(37,7,8,39)         -175.4726         estimate D2E/DX2                !
 ! D50   D(7,8,9,10)            64.691          estimate D2E/DX2                !
 ! D51   D(7,8,9,40)          -172.1041         estimate D2E/DX2                !
 ! D52   D(7,8,9,41)           -56.8658         estimate D2E/DX2                !
 ! D53   D(38,8,9,10)         -174.3063         estimate D2E/DX2                !
 ! D54   D(38,8,9,40)          -51.1014         estimate D2E/DX2                !
 ! D55   D(38,8,9,41)           64.1369         estimate D2E/DX2                !
 ! D56   D(39,8,9,10)          -58.6557         estimate D2E/DX2                !
 ! D57   D(39,8,9,40)           64.5492         estimate D2E/DX2                !
 ! D58   D(39,8,9,41)          179.7874         estimate D2E/DX2                !
 ! D59   D(8,9,10,11)           83.3701         estimate D2E/DX2                !
 ! D60   D(8,9,10,42)          -96.9418         estimate D2E/DX2                !
 ! D61   D(40,9,10,11)         -39.4206         estimate D2E/DX2                !
 ! D62   D(40,9,10,42)         140.2676         estimate D2E/DX2                !
 ! D63   D(41,9,10,11)        -154.4051         estimate D2E/DX2                !
 ! D64   D(41,9,10,42)          25.2831         estimate D2E/DX2                !
 ! D65   D(9,10,11,12)          -0.9625         estimate D2E/DX2                !
 ! D66   D(9,10,11,43)         179.5091         estimate D2E/DX2                !
 ! D67   D(42,10,11,12)        179.3555         estimate D2E/DX2                !
 ! D68   D(42,10,11,43)         -0.1728         estimate D2E/DX2                !
 ! D69   D(10,11,12,13)       -113.1165         estimate D2E/DX2                !
 ! D70   D(10,11,12,44)        126.2284         estimate D2E/DX2                !
 ! D71   D(10,11,12,45)          9.1916         estimate D2E/DX2                !
 ! D72   D(43,11,12,13)         66.4225         estimate D2E/DX2                !
 ! D73   D(43,11,12,44)        -54.2326         estimate D2E/DX2                !
 ! D74   D(43,11,12,45)       -171.2694         estimate D2E/DX2                !
 ! D75   D(11,12,13,14)        177.9916         estimate D2E/DX2                !
 ! D76   D(11,12,13,46)        -59.7078         estimate D2E/DX2                !
 ! D77   D(11,12,13,47)         57.1157         estimate D2E/DX2                !
 ! D78   D(44,12,13,14)        -62.2213         estimate D2E/DX2                !
 ! D79   D(44,12,13,46)         60.0793         estimate D2E/DX2                !
 ! D80   D(44,12,13,47)        176.9028         estimate D2E/DX2                !
 ! D81   D(45,12,13,14)         54.4734         estimate D2E/DX2                !
 ! D82   D(45,12,13,46)        176.7739         estimate D2E/DX2                !
 ! D83   D(45,12,13,47)        -66.4025         estimate D2E/DX2                !
 ! D84   D(12,13,14,15)        173.3638         estimate D2E/DX2                !
 ! D85   D(12,13,14,48)        -64.326          estimate D2E/DX2                !
 ! D86   D(12,13,14,49)         49.8649         estimate D2E/DX2                !
 ! D87   D(46,13,14,15)         51.6255         estimate D2E/DX2                !
 ! D88   D(46,13,14,48)        173.9358         estimate D2E/DX2                !
 ! D89   D(46,13,14,49)        -71.8733         estimate D2E/DX2                !
 ! D90   D(47,13,14,15)        -66.1827         estimate D2E/DX2                !
 ! D91   D(47,13,14,48)         56.1275         estimate D2E/DX2                !
 ! D92   D(47,13,14,49)        170.3184         estimate D2E/DX2                !
 ! D93   D(13,14,15,16)         53.3829         estimate D2E/DX2                !
 ! D94   D(13,14,15,17)        174.6555         estimate D2E/DX2                !
 ! D95   D(13,14,15,21)        -69.6052         estimate D2E/DX2                !
 ! D96   D(48,14,15,16)        -68.5608         estimate D2E/DX2                !
 ! D97   D(48,14,15,17)         52.7117         estimate D2E/DX2                !
 ! D98   D(48,14,15,21)        168.4511         estimate D2E/DX2                !
 ! D99   D(49,14,15,16)        176.6407         estimate D2E/DX2                !
 ! D100  D(49,14,15,17)        -62.0868         estimate D2E/DX2                !
 ! D101  D(49,14,15,21)         53.6526         estimate D2E/DX2                !
 ! D102  D(14,15,16,50)        173.4825         estimate D2E/DX2                !
 ! D103  D(14,15,16,51)        -67.4519         estimate D2E/DX2                !
 ! D104  D(14,15,16,52)         53.3761         estimate D2E/DX2                !
 ! D105  D(17,15,16,50)         55.9566         estimate D2E/DX2                !
 ! D106  D(17,15,16,51)        175.0221         estimate D2E/DX2                !
 ! D107  D(17,15,16,52)        -64.1498         estimate D2E/DX2                !
 ! D108  D(21,15,16,50)        -65.25           estimate D2E/DX2                !
 ! D109  D(21,15,16,51)         53.8156         estimate D2E/DX2                !
 ! D110  D(21,15,16,52)        174.6436         estimate D2E/DX2                !
 ! D111  D(14,15,17,18)       -172.7525         estimate D2E/DX2                !
 ! D112  D(14,15,17,53)         29.6593         estimate D2E/DX2                !
 ! D113  D(16,15,17,18)        -53.3554         estimate D2E/DX2                !
 ! D114  D(16,15,17,53)        149.0564         estimate D2E/DX2                !
 ! D115  D(21,15,17,18)         70.4044         estimate D2E/DX2                !
 ! D116  D(21,15,17,53)        -87.1838         estimate D2E/DX2                !
 ! D117  D(14,15,21,22)        -14.4393         estimate D2E/DX2                !
 ! D118  D(14,15,21,23)        169.4295         estimate D2E/DX2                !
 ! D119  D(16,15,21,22)       -135.7698         estimate D2E/DX2                !
 ! D120  D(16,15,21,23)         48.0991         estimate D2E/DX2                !
 ! D121  D(17,15,21,22)        100.3879         estimate D2E/DX2                !
 ! D122  D(17,15,21,23)        -75.7432         estimate D2E/DX2                !
 ! D123  D(15,17,18,19)       -177.3011         estimate D2E/DX2                !
 ! D124  D(15,17,18,20)          0.5959         estimate D2E/DX2                !
 ! D125  D(53,17,18,19)        -19.785          estimate D2E/DX2                !
 ! D126  D(53,17,18,20)        158.112          estimate D2E/DX2                !
 ! D127  D(17,18,19,54)        -21.7681         estimate D2E/DX2                !
 ! D128  D(17,18,19,55)         99.0084         estimate D2E/DX2                !
 ! D129  D(17,18,19,56)       -141.0834         estimate D2E/DX2                !
 ! D130  D(20,18,19,54)        160.2878         estimate D2E/DX2                !
 ! D131  D(20,18,19,55)        -78.9357         estimate D2E/DX2                !
 ! D132  D(20,18,19,56)         40.9725         estimate D2E/DX2                !
 ! D133  D(15,21,23,24)        172.4882         estimate D2E/DX2                !
 ! D134  D(15,21,23,57)         20.4748         estimate D2E/DX2                !
 ! D135  D(22,21,23,24)         -3.6682         estimate D2E/DX2                !
 ! D136  D(22,21,23,57)       -155.6816         estimate D2E/DX2                !
 ! D137  D(21,23,24,58)        -73.2102         estimate D2E/DX2                !
 ! D138  D(21,23,24,59)         46.7567         estimate D2E/DX2                !
 ! D139  D(21,23,24,60)        167.2858         estimate D2E/DX2                !
 ! D140  D(57,23,24,58)         78.4129         estimate D2E/DX2                !
 ! D141  D(57,23,24,59)       -161.6203         estimate D2E/DX2                !
 ! D142  D(57,23,24,60)        -41.0911         estimate D2E/DX2                !
 ! D143  D(5,25,26,27)        -168.3736         estimate D2E/DX2                !
 ! D144  D(5,25,26,28)          12.412          estimate D2E/DX2                !
 ! D145  D(61,25,26,27)        -26.7235         estimate D2E/DX2                !
 ! D146  D(61,25,26,28)        154.0621         estimate D2E/DX2                !
 ! D147  D(25,26,27,62)        117.3554         estimate D2E/DX2                !
 ! D148  D(25,26,27,63)       -122.8129         estimate D2E/DX2                !
 ! D149  D(25,26,27,64)         -2.9387         estimate D2E/DX2                !
 ! D150  D(28,26,27,62)        -63.4021         estimate D2E/DX2                !
 ! D151  D(28,26,27,63)         56.4296         estimate D2E/DX2                !
 ! D152  D(28,26,27,64)        176.3039         estimate D2E/DX2                !
 --------------------------------------------------------------------------------
 Trust Radius=3.00D-01 FncErr=1.00D-07 GrdErr=1.00D-07
 Number of steps in this run= 340 maximum allowed number of steps= 384.
 GradGradGradGradGradGradGradGradGradGradGradGradGradGradGradGradGradGrad

 Stoichiometry    C20H36N4O4
 Framework group  C1[X(C20H36N4O4)]
 Deg. of freedom   186
 Full point group                 C1      NOp   1
 Largest Abelian subgroup         C1      NOp   1
 Largest concise Abelian subgroup C1      NOp   1
                         Standard orientation:                         
 ---------------------------------------------------------------------
 Center     Atomic      Atomic             Coordinates (Angstroms)
 Number     Number       Type             X           Y           Z
 ---------------------------------------------------------------------
      1          6           0       -7.234350   -0.794936    1.245891
      2          7           0       -6.167536   -0.458371    0.336285
      3          6           0       -4.853257   -0.719364    0.677712
      4          8           0       -4.537342   -1.091509    1.810301
      5          6           0       -3.777063   -0.369986   -0.403283
      6          6           0       -4.204626   -0.796786   -1.816930
      7          6           0       -3.575917    1.169613   -0.343563
      8          6           0       -2.517463    1.702909   -1.322076
      9          6           0       -2.259135    3.205501   -1.169886
     10          6           0       -1.664202    3.578599    0.158837
     11          6           0       -0.366315    3.530605    0.499296
     12          6           0        0.778246    3.075337   -0.362460
     13          6           0        1.391740    1.782096    0.182356
     14          6           0        2.528882    1.287700   -0.723412
     15          6           0        3.337377    0.066219   -0.185746
     16          6           0        2.365166   -1.073280    0.165820
     17          7           0        4.281541   -0.314316   -1.268885
     18          6           0        5.083136   -1.431550   -1.263106
     19          6           0        5.989768   -1.538072   -2.460333
     20          8           0        5.102973   -2.257425   -0.356430
     21          6           0        4.189083    0.514770    1.047943
     22          8           0        4.386836    1.697513    1.324795
     23          7           0        4.774944   -0.513684    1.759547
     24          6           0        5.711868   -0.240734    2.816657
     25          7           0       -2.525898   -1.022738    0.044164
     26          6           0       -2.279698   -2.370901   -0.115796
     27          6           0       -1.081142   -2.864646    0.650884
     28          8           0       -2.944065   -3.122927   -0.819518
     29          1           0       -6.994785   -0.449742    2.255227
     30          1           0       -7.359902   -1.881652    1.253672
     31          1           0       -8.152745   -0.317765    0.897307
     32          1           0       -6.405221   -0.384747   -0.643114
     33          1           0       -4.697274   -1.775251   -1.817688
     34          1           0       -4.923224   -0.090146   -2.248289
     35          1           0       -3.347346   -0.850034   -2.497745
     36          1           0       -3.300045    1.447854    0.682050
     37          1           0       -4.527879    1.676967   -0.546204
     38          1           0       -2.850880    1.523448   -2.350327
     39          1           0       -1.575587    1.156034   -1.196593
     40          1           0       -1.606535    3.544630   -1.982015
     41          1           0       -3.198375    3.757434   -1.298446
     42          1           0       -2.373466    3.926245    0.909876
     43          1           0       -0.092621    3.844640    1.507133
     44          1           0        1.535035    3.867958   -0.379109
     45          1           0        0.464488    2.921515   -1.399324
     46          1           0        1.758466    1.951301    1.200840
     47          1           0        0.609689    1.015505    0.244833
     48          1           0        2.099603    1.026910   -1.700664
     49          1           0        3.217383    2.122813   -0.917834
     50          1           0        2.868116   -2.004127    0.443350
     51          1           0        1.736454   -0.808938    1.022148
     52          1           0        1.713777   -1.307631   -0.683679
     53          1           0        4.585995    0.443921   -1.867265
     54          1           0        5.612474   -0.948109   -3.300229
     55          1           0        6.986814   -1.181984   -2.187600
     56          1           0        6.044580   -2.583571   -2.776198
     57          1           0        4.878005   -1.399279    1.259097
     58          1           0        6.654934    0.092025    2.374460
     59          1           0        5.322219    0.541716    3.473664
     60          1           0        5.872701   -1.160525    3.384997
     61          1           0       -2.183888   -0.655431    0.925774
     62          1           0       -1.408330   -3.603815    1.387196
     63          1           0       -0.376410   -3.324828   -0.046898
     64          1           0       -0.567404   -2.053367    1.173813
 ---------------------------------------------------------------------
 Rotational constants (GHZ):      0.2547588      0.0724565      0.0650253
 Standard basis: 6-31G(d) (6D, 7F)
 There are   492 symmetry adapted basis functions of A   symmetry.
 Integral buffers will be    131072 words long.
 Raffenetti 1 integral format.
 Two-electron integral symmetry is turned on.
   492 basis functions,   928 primitive gaussians,   492 cartesian basis functions
   108 alpha electrons      108 beta electrons
       nuclear repulsion energy      2753.8785861486 Hartrees.
 NAtoms=   64 NActive=   64 NUniq=   64 SFac= 7.50D-01 NAtFMM=   80 NAOKFM=F Big=T
 One-electron integrals computed using PRISM.
 NBasis=   492 RedAO= T  NBF=   492
 NBsUse=   492 1.00D-06 NBFU=   492
 Harris functional with IExCor=  205 diagonalized for initial guess.
 ExpMin= 1.61D-01 ExpMax= 5.48D+03 ExpMxC= 8.25D+02 IAcc=1 IRadAn=         1 AccDes= 0.00D+00
 HarFok:  IExCor=  205 AccDes= 0.00D+00 IRadAn=         1 IDoV= 1
 ScaDFX=  1.000000  1.000000  1.000000  1.000000
 FoFCou: FMM=F IPFlag=           0 FMFlag=      100000 FMFlg1=           1
         NFxFlg=           0 DoJE=T BraDBF=F KetDBF=T FulRan=T
         Omega=  0.000000  0.000000  1.000000  0.000000  0.000000 ICntrl=     500 IOpCl=  0
         NMat0=    1 NMatS0=    1 NMatT0=    0 NMatD0=    1 NMtDS0=    0 NMtDT0=    0
         I1Cent=           4 NGrid=           0.
 Petite list used in FoFCou.
 Initial guess orbital symmetries:
       Occupied  (A) (A) (A) (A) (A) (A) (A) (A) (A) (A) (A) (A)
                 (A) (A) (A) (A) (A) (A) (A) (A) (A) (A) (A) (A)
                 (A) (A) (A) (A) (A) (A) (A) (A) (A) (A) (A) (A)
                 (A) (A) (A) (A) (A) (A) (A) (A) (A) (A) (A) (A)
                 (A) (A) (A) (A) (A) (A) (A) (A) (A) (A) (A) (A)
                 (A) (A) (A) (A) (A) (A) (A) (A) (A) (A) (A) (A)
                 (A) (A) (A) (A) (A) (A) (A) (A) (A) (A) (A) (A)
                 (A) (A) (A) (A) (A) (A) (A) (A) (A) (A) (A) (A)
                 (A) (A) (A) (A) (A) (A) (A) (A) (A) (A) (A) (A)
       Virtual   (A) (A) (A) (A) (A) (A) (A) (A) (A) (A) (A) (A)
                 (A) (A) (A) (A) (A) (A) (A) (A) (A) (A) (A) (A)
                 (A) (A) (A) (A) (A) (A) (A) (A) (A) (A) (A) (A)
                 (A) (A) (A) (A) (A) (A) (A) (A) (A) (A) (A) (A)
                 (A) (A) (A) (A) (A) (A) (A) (A) (A) (A) (A) (A)
                 (A) (A) (A) (A) (A) (A) (A) (A) (A) (A) (A) (A)
                 (A) (A) (A) (A) (A) (A) (A) (A) (A) (A) (A) (A)
                 (A) (A) (A) (A) (A) (A) (A) (A) (A) (A) (A) (A)
                 (A) (A) (A) (A) (A) (A) (A) (A) (A) (A) (A) (A)
                 (A) (A) (A) (A) (A) (A) (A) (A) (A) (A) (A) (A)
                 (A) (A) (A) (A) (A) (A) (A) (A) (A) (A) (A) (A)
                 (A) (A) (A) (A) (A) (A) (A) (A) (A) (A) (A) (A)
                 (A) (A) (A) (A) (A) (A) (A) (A) (A) (A) (A) (A)
                 (A) (A) (A) (A) (A) (A) (A) (A) (A) (A) (A) (A)
                 (A) (A) (A) (A) (A) (A) (A) (A) (A) (A) (A) (A)
                 (A) (A) (A) (A) (A) (A) (A) (A) (A) (A) (A) (A)
                 (A) (A) (A) (A) (A) (A) (A) (A) (A) (A) (A) (A)
                 (A) (A) (A) (A) (A) (A) (A) (A) (A) (A) (A) (A)
                 (A) (A) (A) (A) (A) (A) (A) (A) (A) (A) (A) (A)
                 (A) (A) (A) (A) (A) (A) (A) (A) (A) (A) (A) (A)
                 (A) (A) (A) (A) (A) (A) (A) (A) (A) (A) (A) (A)
                 (A) (A) (A) (A) (A) (A) (A) (A) (A) (A) (A) (A)
                 (A) (A) (A) (A) (A) (A) (A) (A) (A) (A) (A) (A)
                 (A) (A) (A) (A) (A) (A) (A) (A) (A) (A) (A) (A)
                 (A) (A) (A) (A) (A) (A) (A) (A) (A) (A) (A) (A)
                 (A) (A) (A) (A) (A) (A) (A) (A) (A) (A) (A) (A)
                 (A) (A) (A) (A) (A) (A) (A) (A) (A) (A) (A) (A)
                 (A) (A) (A) (A) (A) (A) (A) (A) (A) (A) (A) (A)
                 (A) (A) (A) (A) (A) (A) (A) (A) (A) (A) (A) (A)
                 (A) (A) (A) (A) (A) (A) (A) (A) (A) (A) (A) (A)
                 (A) (A) (A) (A) (A) (A) (A) (A) (A) (A) (A) (A)
                 (A) (A) (A) (A) (A) (A) (A) (A) (A) (A) (A) (A)
 The electronic state of the initial guess is 1-A.
 Requested convergence on RMS density matrix=1.00D-08 within 128 cycles.
 Requested convergence on MAX density matrix=1.00D-06.
 Requested convergence on             energy=1.00D-06.
 No special actions if energy rises.
 Integral accuracy reduced to 1.0D-05 until final iterations.
 Initial convergence to 1.0D-05 achieved.  Increase integral accuracy.
 SCF Done:  E(RHF) =  -1295.60451424     A.U. after   14 cycles
             Convg  =    0.8378D-08             -V/T =  2.0024

 **********************************************************************

            Population analysis using the SCF density.

 **********************************************************************

 Orbital symmetries:
 BldTbl:  Degeneracy threshold= 1.00D-02
       Occupied  (A) (A) (A) (A) (A) (A) (A) (A) (A) (A) (A) (A)
                 (A) (A) (A) (A) (A) (A) (A) (A) (A) (A) (A) (A)
                 (A) (A) (A) (A) (A) (A) (A) (A) (A) (A) (A) (A)
                 (A) (A) (A) (A) (A) (A) (A) (A) (A) (A) (A) (A)
                 (A) (A) (A) (A) (A) (A) (A) (A) (A) (A) (A) (A)
                 (A) (A) (A) (A) (A) (A) (A) (A) (A) (A) (A) (A)
                 (A) (A) (A) (A) (A) (A) (A) (A) (A) (A) (A) (A)
                 (A) (A) (A) (A) (A) (A) (A) (A) (A) (A) (A) (A)
                 (A) (A) (A) (A) (A) (A) (A) (A) (A) (A) (A) (A)
       Virtual   (A) (A) (A) (A) (A) (A) (A) (A) (A) (A) (A) (A)
                 (A) (A) (A) (A) (A) (A) (A) (A) (A) (A) (A) (A)
                 (A) (A) (A) (A) (A) (A) (A) (A) (A) (A) (A) (A)
                 (A) (A) (A) (A) (A) (A) (A) (A) (A) (A) (A) (A)
                 (A) (A) (A) (A) (A) (A) (A) (A) (A) (A) (A) (A)
                 (A) (A) (A) (A) (A) (A) (A) (A) (A) (A) (A) (A)
                 (A) (A) (A) (A) (A) (A) (A) (A) (A) (A) (A) (A)
                 (A) (A) (A) (A) (A) (A) (A) (A) (A) (A) (A) (A)
                 (A) (A) (A) (A) (A) (A) (A) (A) (A) (A) (A) (A)
                 (A) (A) (A) (A) (A) (A) (A) (A) (A) (A) (A) (A)
                 (A) (A) (A) (A) (A) (A) (A) (A) (A) (A) (A) (A)
                 (A) (A) (A) (A) (A) (A) (A) (A) (A) (A) (A) (A)
                 (A) (A) (A) (A) (A) (A) (A) (A) (A) (A) (A) (A)
                 (A) (A) (A) (A) (A) (A) (A) (A) (A) (A) (A) (A)
                 (A) (A) (A) (A) (A) (A) (A) (A) (A) (A) (A) (A)
                 (A) (A) (A) (A) (A) (A) (A) (A) (A) (A) (A) (A)
                 (A) (A) (A) (A) (A) (A) (A) (A) (A) (A) (A) (A)
                 (A) (A) (A) (A) (A) (A) (A) (A) (A) (A) (A) (A)
                 (A) (A) (A) (A) (A) (A) (A) (A) (A) (A) (A) (A)
                 (A) (A) (A) (A) (A) (A) (A) (A) (A) (A) (A) (A)
                 (A) (A) (A) (A) (A) (A) (A) (A) (A) (A) (A) (A)
                 (A) (A) (A) (A) (A) (A) (A) (A) (A) (A) (A) (A)
                 (A) (A) (A) (A) (A) (A) (A) (A) (A) (A) (A) (A)
                 (A) (A) (A) (A) (A) (A) (A) (A) (A) (A) (A) (A)
                 (A) (A) (A) (A) (A) (A) (A) (A) (A) (A) (A) (A)
                 (A) (A) (A) (A) (A) (A) (A) (A) (A) (A) (A) (A)
                 (A) (A) (A) (A) (A) (A) (A) (A) (A) (A) (A) (A)
                 (A) (A) (A) (A) (A) (A) (A) (A) (A) (A) (A) (A)
                 (A) (A) (A) (A) (A) (A) (A) (A) (A) (A) (A) (A)
                 (A) (A) (A) (A) (A) (A) (A) (A) (A) (A) (A) (A)
                 (A) (A) (A) (A) (A) (A) (A) (A) (A) (A) (A) (A)
                 (A) (A) (A) (A) (A) (A) (A) (A) (A) (A) (A) (A)
 The electronic state is 1-A.
 Alpha  occ. eigenvalues --  -20.54908 -20.52946 -20.52383 -20.52072 -15.60976
 Alpha  occ. eigenvalues --  -15.58881 -15.58340 -15.56433 -11.37786 -11.35271
 Alpha  occ. eigenvalues --  -11.34986 -11.34629 -11.30258 -11.29716 -11.25842
 Alpha  occ. eigenvalues --  -11.25213 -11.24637 -11.23868 -11.23571 -11.23032
 Alpha  occ. eigenvalues --  -11.22879 -11.22811 -11.22773 -11.22753 -11.22728
 Alpha  occ. eigenvalues --  -11.22623 -11.22505 -11.22483  -1.40212  -1.37726
 Alpha  occ. eigenvalues --   -1.36798  -1.36637  -1.24917  -1.22811  -1.22455
 Alpha  occ. eigenvalues --   -1.20772  -1.10944  -1.09444  -1.07353  -1.04476
 Alpha  occ. eigenvalues --   -1.01278  -0.99555  -0.98648  -0.95145  -0.94544
 Alpha  occ. eigenvalues --   -0.93765  -0.92056  -0.87688  -0.85529  -0.81555
 Alpha  occ. eigenvalues --   -0.80640  -0.79229  -0.79031  -0.75663  -0.75480
 Alpha  occ. eigenvalues --   -0.72355  -0.71832  -0.71084  -0.69434  -0.67692
 Alpha  occ. eigenvalues --   -0.66528  -0.65394  -0.65156  -0.63429  -0.63204
 Alpha  occ. eigenvalues --   -0.62890  -0.62563  -0.62064  -0.61593  -0.61090
 Alpha  occ. eigenvalues --   -0.60569  -0.60179  -0.59152  -0.58983  -0.58167
 Alpha  occ. eigenvalues --   -0.57965  -0.57668  -0.56267  -0.55717  -0.55684
 Alpha  occ. eigenvalues --   -0.54955  -0.54358  -0.54340  -0.53881  -0.53586
 Alpha  occ. eigenvalues --   -0.53417  -0.52890  -0.52326  -0.52199  -0.51486
 Alpha  occ. eigenvalues --   -0.50799  -0.50461  -0.49964  -0.48861  -0.48117
 Alpha  occ. eigenvalues --   -0.47510  -0.47447  -0.47242  -0.45188  -0.44148
 Alpha  occ. eigenvalues --   -0.42928  -0.41971  -0.41078  -0.39112  -0.38970
 Alpha  occ. eigenvalues --   -0.38448  -0.37031  -0.34134
 Alpha virt. eigenvalues --    0.16537   0.17340   0.18656   0.19293   0.19458
 Alpha virt. eigenvalues --    0.19754   0.20873   0.21514   0.22590   0.24231
 Alpha virt. eigenvalues --    0.25471   0.25729   0.26043   0.26077   0.26652
 Alpha virt. eigenvalues --    0.26887   0.27940   0.28406   0.28683   0.28974
 Alpha virt. eigenvalues --    0.29108   0.30373   0.30743   0.30961   0.31487
 Alpha virt. eigenvalues --    0.31763   0.32131   0.32489   0.33008   0.33300
 Alpha virt. eigenvalues --    0.33592   0.33721   0.33822   0.34203   0.34757
 Alpha virt. eigenvalues --    0.35103   0.35789   0.36855   0.37017   0.37186
 Alpha virt. eigenvalues --    0.37578   0.38310   0.38587   0.38871   0.39753
 Alpha virt. eigenvalues --    0.40207   0.41831   0.42127   0.42932   0.43018
 Alpha virt. eigenvalues --    0.43373   0.43994   0.45490   0.45795   0.46955
 Alpha virt. eigenvalues --    0.47598   0.48276   0.48415   0.50452   0.52526
 Alpha virt. eigenvalues --    0.55005   0.55490   0.56927   0.58370   0.60745
 Alpha virt. eigenvalues --    0.61199   0.62292   0.63204   0.68745   0.70045
 Alpha virt. eigenvalues --    0.70537   0.70801   0.71994   0.72480   0.73063
 Alpha virt. eigenvalues --    0.73667   0.74280   0.74665   0.75419   0.75579
 Alpha virt. eigenvalues --    0.76246   0.76612   0.77033   0.77925   0.78475
 Alpha virt. eigenvalues --    0.78904   0.79332   0.80276   0.80821   0.81589
 Alpha virt. eigenvalues --    0.81839   0.82571   0.83999   0.85122   0.85457
 Alpha virt. eigenvalues --    0.87368   0.87464   0.88441   0.88922   0.90733
 Alpha virt. eigenvalues --    0.91143   0.91334   0.91920   0.92557   0.93280
 Alpha virt. eigenvalues --    0.94054   0.94796   0.95421   0.95961   0.96306
 Alpha virt. eigenvalues --    0.96978   0.97568   0.99003   0.99289   0.99853
 Alpha virt. eigenvalues --    1.00534   1.01469   1.02301   1.02921   1.03886
 Alpha virt. eigenvalues --    1.04706   1.05735   1.06320   1.06500   1.06844
 Alpha virt. eigenvalues --    1.08326   1.09034   1.09377   1.10047   1.10452
 Alpha virt. eigenvalues --    1.10913   1.11500   1.12442   1.12568   1.12964
 Alpha virt. eigenvalues --    1.13337   1.13702   1.14082   1.14531   1.14562
 Alpha virt. eigenvalues --    1.15486   1.15628   1.15965   1.16130   1.16569
 Alpha virt. eigenvalues --    1.16892   1.17268   1.17670   1.18077   1.18307
 Alpha virt. eigenvalues --    1.19110   1.19420   1.19693   1.20648   1.20792
 Alpha virt. eigenvalues --    1.21382   1.21782   1.22127   1.22393   1.22787
 Alpha virt. eigenvalues --    1.23078   1.23905   1.24027   1.24268   1.25119
 Alpha virt. eigenvalues --    1.25797   1.26422   1.26660   1.26953   1.27616
 Alpha virt. eigenvalues --    1.28661   1.29427   1.30557   1.32316   1.32692
 Alpha virt. eigenvalues --    1.33518   1.33885   1.36064   1.36540   1.37156
 Alpha virt. eigenvalues --    1.37605   1.40065   1.41757   1.42271   1.42963
 Alpha virt. eigenvalues --    1.43497   1.44355   1.44767   1.46001   1.48301
 Alpha virt. eigenvalues --    1.48856   1.50096   1.51211   1.51414   1.55110
 Alpha virt. eigenvalues --    1.56301   1.56552   1.58810   1.59745   1.61003
 Alpha virt. eigenvalues --    1.61913   1.64566   1.66250   1.66735   1.67868
 Alpha virt. eigenvalues --    1.68451   1.69840   1.70377   1.71125   1.72378
 Alpha virt. eigenvalues --    1.73329   1.73989   1.75805   1.78314   1.79634
 Alpha virt. eigenvalues --    1.80707   1.82534   1.83668   1.84905   1.85699
 Alpha virt. eigenvalues --    1.86661   1.88979   1.90340   1.92855   1.94400
 Alpha virt. eigenvalues --    1.94818   1.96608   1.98935   1.99120   2.01157
 Alpha virt. eigenvalues --    2.01842   2.02736   2.03609   2.05841   2.06506
 Alpha virt. eigenvalues --    2.06744   2.07832   2.08491   2.09681   2.11070
 Alpha virt. eigenvalues --    2.11644   2.12414   2.13246   2.14290   2.15040
 Alpha virt. eigenvalues --    2.16071   2.16239   2.16907   2.17765   2.18315
 Alpha virt. eigenvalues --    2.19035   2.19581   2.20551   2.20726   2.21660
 Alpha virt. eigenvalues --    2.22153   2.23265   2.24129   2.25088   2.25574
 Alpha virt. eigenvalues --    2.26726   2.27032   2.27918   2.28809   2.29681
 Alpha virt. eigenvalues --    2.30333   2.30702   2.31556   2.32278   2.33478
 Alpha virt. eigenvalues --    2.33899   2.34955   2.36193   2.36580   2.36907
 Alpha virt. eigenvalues --    2.38157   2.38907   2.40235   2.41483   2.42813
 Alpha virt. eigenvalues --    2.44138   2.44946   2.45900   2.46464   2.46958
 Alpha virt. eigenvalues --    2.49258   2.51556   2.51875   2.53342   2.55081
 Alpha virt. eigenvalues --    2.55369   2.55956   2.56989   2.58285   2.59260
 Alpha virt. eigenvalues --    2.60397   2.61302   2.61678   2.63161   2.63994
 Alpha virt. eigenvalues --    2.64829   2.65664   2.66235   2.67480   2.69160
 Alpha virt. eigenvalues --    2.70823   2.71273   2.71815   2.72220   2.73273
 Alpha virt. eigenvalues --    2.74214   2.74759   2.76270   2.76386   2.77288
 Alpha virt. eigenvalues --    2.78747   2.80120   2.82385   2.84492   2.84922
 Alpha virt. eigenvalues --    2.87023   2.87965   2.90419   2.92036   2.93120
 Alpha virt. eigenvalues --    2.94261   2.95539   2.95651   2.97884   2.98480
 Alpha virt. eigenvalues --    3.00305   3.01064   3.03981   3.05118   3.05734
 Alpha virt. eigenvalues --    3.06743   3.08996   3.10726   3.12269   3.14234
 Alpha virt. eigenvalues --    3.18390   3.19646   3.20177   3.25878   3.27435
 Alpha virt. eigenvalues --    3.29623   3.31253   3.37661   3.38182   3.38993
 Alpha virt. eigenvalues --    3.39593   3.40881   3.47876   3.50553   3.52063
 Alpha virt. eigenvalues --    3.54143   4.34296   4.38485   4.42145   4.46899
 Alpha virt. eigenvalues --    4.49056   4.50684   4.54262   4.57834   4.59187
 Alpha virt. eigenvalues --    4.61301   4.62709   4.63588   4.66418   4.70017
 Alpha virt. eigenvalues --    4.70391   4.73190   4.74477   4.81288   4.82761
 Alpha virt. eigenvalues --    4.86703   4.87640   4.90479   4.94019   4.94209
 Alpha virt. eigenvalues --    4.96447   5.01661   5.18108   5.18417
          Condensed to atoms (all electrons):
 Mulliken atomic charges:
              1
     1  C   -0.276726
     2  N   -0.795775
     3  C    0.794198
     4  O   -0.643455
     5  C    0.100761
     6  C   -0.511898
     7  C   -0.321602
     8  C   -0.306876
     9  C   -0.350306
    10  C   -0.191091
    11  C   -0.162874
    12  C   -0.352356
    13  C   -0.323307
    14  C   -0.315061
    15  C    0.105315
    16  C   -0.500198
    17  N   -0.827426
    18  C    0.783388
    19  C   -0.583779
    20  O   -0.650795
    21  C    0.783796
    22  O   -0.641394
    23  N   -0.823698
    24  C   -0.271634
    25  N   -0.793257
    26  C    0.774161
    27  C   -0.580502
    28  O   -0.625282
    29  H    0.207221
    30  H    0.176848
    31  H    0.166502
    32  H    0.391504
    33  H    0.220534
    34  H    0.144759
    35  H    0.198243
    36  H    0.183582
    37  H    0.175194
    38  H    0.161395
    39  H    0.183216
    40  H    0.176722
    41  H    0.163015
    42  H    0.177681
    43  H    0.183576
    44  H    0.178938
    45  H    0.163351
    46  H    0.194422
    47  H    0.161886
    48  H    0.165570
    49  H    0.185325
    50  H    0.216032
    51  H    0.178187
    52  H    0.172573
    53  H    0.395746
    54  H    0.181754
    55  H    0.210861
    56  H    0.219226
    57  H    0.464443
    58  H    0.161182
    59  H    0.195540
    60  H    0.169308
    61  H    0.394405
    62  H    0.213893
    63  H    0.204987
    64  H    0.170055
 Sum of Mulliken atomic charges =   0.00000
 Mulliken charges with hydrogens summed into heavy atoms:
              1
     1  C    0.273845
     2  N   -0.404271
     3  C    0.794198
     4  O   -0.643455
     5  C    0.100761
     6  C    0.051637
     7  C    0.037175
     8  C    0.037734
     9  C   -0.010568
    10  C   -0.013410
    11  C    0.020702
    12  C   -0.010067
    13  C    0.033000
    14  C    0.035834
    15  C    0.105315
    16  C    0.066593
    17  N   -0.431680
    18  C    0.783388
    19  C    0.028062
    20  O   -0.650795
    21  C    0.783796
    22  O   -0.641394
    23  N   -0.359256
    24  C    0.254396
    25  N   -0.398852
    26  C    0.774161
    27  C    0.008433
    28  O   -0.625282
 Sum of Mulliken charges with hydrogens summed into heavy atoms =   0.00000
 DipInt: DoE/N= T F RetVal/Mat= T F Init=T NMatP=  1 IDeriv=0 Min/MaxMlt=  0  4
 Entering OneElI...
 OneElI was handed    32936476 working-precision words.
 Multipole integrals L=0 to 4 MinM= 0 MaxM= 0.
 Requested accuracy = 0.1000D-12
 PrsmSu:  NPrtUS=   1 ThrOK=F IAlg=1
 PRISM was handed    32040886 working-precision words and 10985 shell-pairs
 IPart=  0 NShTot=       10985 NBatch=          78 AvBLen=       140.8
 Electronic moments (au):
       -216.00000000          0.02629738          0.92619271         -1.66729507
     -12635.93789659      -2902.82838895      -1379.42907449        -12.91933558
         -5.83198622         -4.66503117       1289.14890355      -4008.72943856
       -416.19280833       2248.98470004      13055.77712722      -4770.89930606
      -4141.93727601        711.21964865       1011.46433651      -3181.74934113
   -1283818.60534962     -94211.35464683     -25651.57543796       9315.54302503
      54369.21299484       6879.03701209        109.84349857      -6327.21791694
      -1023.13044991     -89018.24869202    -117920.91548713     -12062.60124031
     -11599.65579534        235.19390277       5266.61641988
 Electronic spatial extent (au):  <R**2>=          16918.1954
 DipInt: DoE/N= F T RetVal/Mat= T F Init=T NMatP=  1 IDeriv=0 Min/MaxMlt=  0  4
 Nuclear    moments (au):
        216.00000000          0.00000000          0.00000000          0.00000000
      12527.46695244       2757.78277918       1254.30574694          0.00000000
          0.00000000          0.00000000      -1449.35481310       4013.24384456
        403.06361005      -2246.07168758     -13042.45900331       4594.31856394
       4233.17352434       -721.58419509       -994.24336243       3168.29639801
    1246079.25994596      83126.15985081      20943.30685628      -9626.39477822
     -55020.24331565      -7092.58899630       -258.30193493       6346.89857826
       1109.29389802      78909.42760628     110356.30732595       9573.22204100
      11503.40667391       -533.18261833      -5535.08070623
 Total      moments (au):
          0.00000000          0.02629738          0.92619271         -1.66729507
       -108.47094415       -145.04560977       -125.12332755        -12.91933558
         -5.83198622         -4.66503117       -160.20590955          4.51440600
        -13.12919828          2.91301246         13.31812391       -176.58074212
         91.23624833        -10.36454645         17.22097408        -13.45294312
     -37739.34540365     -11085.19479602      -4708.26858167       -310.85175319
       -651.03032081       -213.55198421       -148.45843636         19.68066131
         86.16344811     -10108.82108574      -7564.60816118      -2489.37919931
        -96.24912143       -297.98871556       -268.46428635
 Traceless Quadrup. (au):
         17.74234967        -18.83231595          1.08996627        -12.91933558
         -5.83198622         -4.66503117
 Charge=              0.0000 electrons
 Dipole moment (field-independent basis, Debye):
    X=              0.0668    Y=              2.3541    Z=             -4.2378  Tot=              4.8483
 Quadrupole moment (field-independent basis, Debye-Ang):
   XX=           -145.8971   YY=           -195.0913   ZZ=           -168.2952
   XY=            -17.3769   XZ=             -7.8442   YZ=             -6.2746
 Traceless Quadrupole moment (field-independent basis, Debye-Ang):
   XX=             23.8641   YY=            -25.3301   ZZ=              1.4660
   XY=            -17.3769   XZ=             -7.8442   YZ=             -6.2746
 Octapole moment (field-independent basis, Debye-Ang**2):
  XXX=           -114.0284  YYY=              3.2132  ZZZ=             -9.3449  XYY=              2.0734
  XXY=              9.4793  XXZ=           -125.6834  XZZ=             64.9384  YZZ=             -7.3771
  YYZ=             12.2572  XYZ=             -9.5753
 Hexadecapole moment (field-independent basis, Debye-Ang**3):
 XXXX=         -14214.4462 YYYY=          -4175.2156 ZZZZ=          -1773.3596 XXXY=           -117.0817
 XXXZ=           -245.2092 YYYX=            -80.4339 YYYZ=            -55.9166 ZZZX=              7.4127
 ZZZY=             32.4533 XXYY=          -3807.4665 XXZZ=          -2849.1940 YYZZ=           -937.6195
 XXYZ=            -36.2520 YYXZ=           -112.2368 ZZXY=           -101.1165
 N-N= 2.753878586149D+03 E-N=-8.538205280440D+03  KE= 1.292542212201D+03
 Entering OneElI...
 OneElI was handed    32450256 working-precision words.
 Calculate electrostatic properties
    NBasis =   492  MinDer = 0  MaxDer = 0
    NGrid  =    64  NMatD  =   1
 Requested accuracy = 0.1000D-12
 PrsmSu:  NPrtUS=   1 ThrOK=F IAlg=1
 PRISM was handed    31668539 working-precision words and  9237 shell-pairs
 IPart=  0 NShTot=      591168 NBatch=        9237 AvBLen=        64.0
 --------------------------------------------------------
       Center         ----      EFG at Nuclei      ----
                      3XX-RR        3YY-RR        3ZZ-RR
 --------------------------------------------------------
     1   Atom       -0.116920      0.112008      0.004912
     2   Atom       -0.524689      0.962461     -0.437771
     3   Atom        0.196200     -0.495728      0.299529
     4   Atom        1.483425     -0.744227     -0.739199
     5   Atom       -0.177242      0.081012      0.096230
     6   Atom        0.013660      0.064589     -0.078250
     7   Atom        0.032746     -0.076972      0.044225
     8   Atom        0.014949     -0.015891      0.000941
     9   Atom        0.017068     -0.011232     -0.005836
    10   Atom        0.195177     -0.243360      0.048184
    11   Atom        0.206414     -0.263439      0.057025
    12   Atom        0.012115     -0.004854     -0.007261
    13   Atom       -0.005074     -0.015602      0.020676
    14   Atom        0.018147     -0.011527     -0.006620
    15   Atom       -0.045310      0.158889     -0.113579
    16   Atom       -0.016660     -0.002227      0.018887
    17   Atom        0.209118     -0.300647      0.091529
    18   Atom       -0.193438      0.012608      0.180830
    19   Atom       -0.000091      0.046938     -0.046847
    20   Atom        0.389777     -0.083132     -0.306645
    21   Atom       -0.239270      0.283914     -0.044644
    22   Atom        0.163737     -0.737352      0.573615
    23   Atom        0.332434     -0.275385     -0.057049
    24   Atom       -0.041848      0.124452     -0.082604
    25   Atom        0.121230     -0.257495      0.136265
    26   Atom        0.055437      0.132789     -0.188226
    27   Atom       -0.029696      0.025430      0.004266
    28   Atom        0.124385      0.502883     -0.627268
    29   Atom        0.122730      0.106878     -0.229608
    30   Atom        0.137576     -0.285006      0.147430
    31   Atom       -0.171042      0.072136      0.098905
    32   Atom        0.125749      0.235962     -0.361711
    33   Atom        0.058149     -0.192752      0.134603
    34   Atom       -0.041068     -0.036800      0.077868
    35   Atom       -0.124812      0.152373     -0.027561
    36   Atom        0.120474      0.109492     -0.229966
    37   Atom       -0.182364      0.048214      0.134150
    38   Atom        0.106977      0.132574     -0.239551
    39   Atom       -0.180204      0.038710      0.141494
    40   Atom       -0.010482      0.106836     -0.096354
    41   Atom       -0.175918      0.036885      0.139033
    42   Atom       -0.047230      0.116443     -0.069213
    43   Atom        0.112314      0.122977     -0.235291
    44   Atom       -0.066008     -0.081913      0.147921
    45   Atom        0.107981      0.140622     -0.248603
    46   Atom        0.100941      0.129325     -0.230266
    47   Atom       -0.077758     -0.070570      0.148328
    48   Atom        0.076327      0.117865     -0.194192
    49   Atom       -0.031776     -0.105368      0.137144
    50   Atom        0.049039     -0.169947      0.120907
    51   Atom        0.000770      0.115948     -0.116718
    52   Atom       -0.007750      0.127993     -0.120242
    53   Atom        0.143445     -0.141100     -0.002345
    54   Atom        0.096065      0.018118     -0.114183
    55   Atom       -0.223600      0.106801      0.116799
    56   Atom        0.146786     -0.256272      0.109486
    57   Atom        0.164563     -0.214934      0.050371
    58   Atom       -0.187755      0.116397      0.071358
    59   Atom        0.086925     -0.068731     -0.018194
    60   Atom        0.139961     -0.164767      0.024805
    61   Atom        0.129177      0.092703     -0.221881
    62   Atom        0.105103     -0.053431     -0.051672
    63   Atom       -0.039187      0.073536     -0.034348
    64   Atom        0.048431     -0.102087      0.053655
 --------------------------------------------------------
                        XY            XZ            YZ
 --------------------------------------------------------
     1   Atom       -0.060816      0.197755      0.066568
     2   Atom        0.042350      0.013713      0.267687
     3   Atom       -0.015628     -0.074913     -0.265471
     4   Atom        0.076823     -0.679239      0.052589
     5   Atom        0.130166     -0.026424      0.061877
     6   Atom        0.023116     -0.049485     -0.019131
     7   Atom       -0.010159      0.007504     -0.005833
     8   Atom       -0.025066      0.032267      0.002246
     9   Atom       -0.000523     -0.016524     -0.001055
    10   Atom       -0.042863      0.040635      0.116577
    11   Atom       -0.055877      0.052613      0.122701
    12   Atom        0.015920      0.019332      0.008751
    13   Atom        0.030261      0.043734      0.009090
    14   Atom        0.052453     -0.025206      0.054577
    15   Atom        0.075849      0.170968     -0.113902
    16   Atom       -0.087976      0.017915      0.000151
    17   Atom        0.350642      0.651653      0.298146
    18   Atom       -0.255164     -0.346194     -0.231925
    19   Atom       -0.000128      0.040126     -0.004343
    20   Atom       -0.778553     -0.835384      0.804799
    21   Atom        0.012417      0.411487      0.095988
    22   Atom       -0.520183      1.100267     -0.485314
    23   Atom        0.302281     -0.666944     -0.099737
    24   Atom       -0.046581     -0.185621     -0.027308
    25   Atom        0.432921     -0.627610     -0.347053
    26   Atom       -0.097195      0.447958      0.171153
    27   Atom        0.011697     -0.039572      0.002609
    28   Atom       -1.251268      0.320750     -0.476353
    29   Atom       -0.036670     -0.077037     -0.128273
    30   Atom       -0.055885      0.010934      0.004781
    31   Atom        0.163052     -0.112179      0.068705
    32   Atom        0.008936     -0.124824      0.049763
    33   Atom       -0.180364      0.001198     -0.003126
    34   Atom        0.191161     -0.110628      0.107133
    35   Atom        0.013824      0.210444     -0.014033
    36   Atom       -0.029465     -0.101807     -0.096848
    37   Atom        0.167747     -0.071978      0.039406
    38   Atom       -0.026950     -0.125033     -0.066087
    39   Atom        0.182537     -0.041253      0.025979
    40   Atom       -0.081847      0.194548      0.097801
    41   Atom        0.186792     -0.046203      0.022254
    42   Atom        0.094127      0.197876     -0.104345
    43   Atom       -0.028959     -0.102694     -0.124032
    44   Atom       -0.217360      0.007432      0.002896
    45   Atom       -0.013505     -0.121787     -0.061401
    46   Atom       -0.013807     -0.132314     -0.062676
    47   Atom       -0.213463      0.018069      0.017144
    48   Atom       -0.035592     -0.149802     -0.095297
    49   Atom       -0.193996      0.054380      0.058786
    50   Atom        0.164558     -0.053095      0.096583
    51   Atom        0.057232      0.201572     -0.088091
    52   Atom       -0.059736     -0.204130     -0.067423
    53   Atom       -0.101838      0.134565      0.257183
    54   Atom        0.089804     -0.111349      0.183220
    55   Atom       -0.133821     -0.098058     -0.039317
    56   Atom        0.021981      0.012241     -0.123469
    57   Atom        0.059789     -0.013708     -0.194562
    58   Atom       -0.120009      0.147246      0.052124
    59   Atom        0.110290      0.085937     -0.195060
    60   Atom        0.052140     -0.044436      0.192070
    61   Atom       -0.036677     -0.192504     -0.187998
    62   Atom       -0.088660      0.085992      0.206854
    63   Atom        0.125314      0.181130     -0.119197
    64   Atom       -0.148132     -0.104991     -0.159005
 --------------------------------------------------------


 ---------------------------------------------------------------------------------
              Nuclear Quadrupole in Principal Axis System
 ---------------------------------------------------------------------------------

       Atom             a.u.   MegaHertz   Gauss  10(-4) cm-1        Axes

              Baa    -0.2828   -37.947   -13.541   -12.658  0.7797  0.2190 -0.5866
     1 C(13)  Bbb     0.1219    16.356     5.836     5.456 -0.4555  0.8412 -0.2913
              Bcc     0.1609    21.592     7.704     7.202  0.4297  0.4944  0.7556
 
              Baa    -0.5268   -20.318    -7.250    -6.777  0.9891 -0.0016 -0.1475
     2 N(14)  Bbb    -0.4864   -18.758    -6.693    -6.257  0.1447 -0.1839  0.9722
              Bcc     1.0132    39.075    13.943    13.034  0.0287  0.9830  0.1816
 
              Baa    -0.5780   -77.556   -27.674   -25.870  0.0476  0.9549  0.2930
     3 C(13)  Bbb     0.1759    23.603     8.422     7.873  0.9489 -0.1349  0.2854
              Bcc     0.4021    53.953    19.252    17.997 -0.3120 -0.2644  0.9125
 
              Baa    -0.9547    69.084    24.651    23.044  0.2634 -0.3232  0.9089
     4 O(17)  Bbb    -0.7213    52.193    18.624    17.410  0.0649  0.9460  0.3176
              Bcc     1.6760  -121.277   -43.275   -40.454  0.9625  0.0247 -0.2701
 
              Baa    -0.2385   -32.008   -11.421   -10.677  0.9062 -0.3972  0.1450
     5 C(13)  Bbb     0.0701     9.405     3.356     3.137 -0.3416 -0.4858  0.8045
              Bcc     0.1684    22.603     8.065     7.540  0.2491  0.7786  0.5760
 
              Baa    -0.1003   -13.454    -4.801    -4.488  0.3889  0.0522  0.9198
     6 C(13)  Bbb     0.0177     2.377     0.848     0.793  0.7975 -0.5189 -0.3078
              Bcc     0.0825    11.077     3.952     3.695  0.4612  0.8532 -0.2435
 
              Baa    -0.0781   -10.483    -3.741    -3.497  0.0883  0.9952  0.0420
     7 C(13)  Bbb     0.0294     3.948     1.409     1.317  0.8810 -0.0584 -0.4695
              Bcc     0.0487     6.535     2.332     2.180  0.4648 -0.0785  0.8819
 
              Baa    -0.0402    -5.391    -1.923    -1.798  0.5824  0.6468 -0.4924
     8 C(13)  Bbb    -0.0064    -0.862    -0.307    -0.287 -0.2044  0.7028  0.6814
              Bcc     0.0466     6.252     2.231     2.086  0.7868 -0.2962  0.5415
 
              Baa    -0.0149    -1.995    -0.712    -0.666  0.4412  0.3080  0.8429
     9 C(13)  Bbb    -0.0109    -1.456    -0.520    -0.486 -0.1435  0.9514 -0.2725
              Bcc     0.0257     3.452     1.232     1.151  0.8859  0.0007 -0.4639
 
              Baa    -0.2902   -38.948   -13.898   -12.992  0.1107  0.9355 -0.3355
    10 C(13)  Bbb     0.0842    11.293     4.030     3.767 -0.1990  0.3516  0.9147
              Bcc     0.2061    27.655     9.868     9.225  0.9737 -0.0345  0.2251
 
              Baa    -0.3144   -42.193   -15.055   -14.074  0.1335  0.9353 -0.3278
    11 C(13)  Bbb     0.0907    12.166     4.341     4.058 -0.2414  0.3515  0.9045
              Bcc     0.2238    30.026    10.714    10.016  0.9612 -0.0416  0.2727
 
              Baa    -0.0193    -2.592    -0.925    -0.865 -0.5669  0.1320  0.8131
    12 C(13)  Bbb    -0.0135    -1.809    -0.645    -0.603 -0.2915  0.8911 -0.3479
              Bcc     0.0328     4.401     1.570     1.468  0.7705  0.4342  0.4667
 
              Baa    -0.0502    -6.739    -2.405    -2.248  0.7421 -0.5469 -0.3876
    13 C(13)  Bbb    -0.0119    -1.593    -0.568    -0.531  0.2682  0.7722 -0.5760
              Bcc     0.0621     8.332     2.973     2.779  0.6143  0.3235  0.7197
 
              Baa    -0.0921   -12.357    -4.409    -4.122 -0.4556  0.6832 -0.5707
    14 C(13)  Bbb     0.0300     4.022     1.435     1.342 -0.6100  0.2272  0.7591
              Bcc     0.0621     8.335     2.974     2.780  0.6483  0.6940  0.3133
 
              Baa    -0.2947   -39.547   -14.111   -13.191 -0.5995  0.2878  0.7468
    15 C(13)  Bbb     0.0933    12.526     4.470     4.178  0.7957  0.1133  0.5950
              Bcc     0.2014    27.021     9.642     9.013  0.0866  0.9510 -0.2969
 
              Baa    -0.0992   -13.314    -4.751    -4.441  0.7359  0.6677 -0.1125
    16 C(13)  Bbb     0.0180     2.420     0.863     0.807 -0.0484  0.2176  0.9748
              Bcc     0.0812    10.895     3.887     3.634 -0.6754  0.7119 -0.1925
 
              Baa    -0.5096   -19.655    -7.013    -6.556  0.7173 -0.3222 -0.6178
    17 N(14)  Bbb    -0.4614   -17.795    -6.350    -5.936 -0.0067  0.8834 -0.4685
              Bcc     0.9710    37.450    13.363    12.492  0.6967  0.3402  0.6316
 
              Baa    -0.5907   -79.261   -28.282   -26.439  0.7298  0.4914  0.4752
    18 C(13)  Bbb     0.1848    24.793     8.847     8.270 -0.5565  0.8308 -0.0044
              Bcc     0.4059    54.468    19.436    18.169 -0.3970 -0.2613  0.8798
 
              Baa    -0.0700    -9.397    -3.353    -3.134 -0.4974  0.0316  0.8670
    19 C(13)  Bbb     0.0228     3.054     1.090     1.019  0.8651  0.0931  0.4929
              Bcc     0.0473     6.343     2.263     2.116 -0.0651  0.9952 -0.0737
 
              Baa    -1.0296    74.499    26.583    24.850  0.1820 -0.5458  0.8179
    20 O(17)  Bbb    -0.6180    44.715    15.956    14.915  0.7183  0.6418  0.2684
              Bcc     1.6475  -119.215   -42.539   -39.766  0.6714 -0.5387 -0.5089
 
              Baa    -0.5677   -76.185   -27.185   -25.413  0.7793  0.0590 -0.6239
    21 C(13)  Bbb     0.2010    26.969     9.623     8.996 -0.4818  0.6929 -0.5364
              Bcc     0.3668    49.216    17.561    16.417  0.4007  0.7186  0.5684
 
              Baa    -0.9755    70.585    25.186    23.545  0.4402  0.8974 -0.0315
    22 O(17)  Bbb    -0.7176    51.924    18.528    17.320 -0.6480  0.3418  0.6806
              Bcc     1.6931  -122.509   -43.714   -40.865  0.6216 -0.2792  0.7319
 
              Baa    -0.5971   -23.027    -8.217    -7.681  0.6182 -0.3651  0.6961
    23 N(14)  Bbb    -0.3127   -12.059    -4.303    -4.023  0.0345  0.8973  0.4400
              Bcc     0.9097    35.087    12.520    11.704  0.7853  0.2480 -0.5673
 
              Baa    -0.2559   -34.343   -12.254   -11.456  0.6657  0.1342  0.7341
    24 C(13)  Bbb     0.1113    14.934     5.329     4.982  0.5189  0.6236 -0.5846
              Bcc     0.1446    19.409     6.926     6.474 -0.5363  0.7701  0.3455
 
              Baa    -0.5580   -21.520    -7.679    -7.178  0.6951 -0.6523  0.3023
    25 N(14)  Bbb    -0.4408   -16.999    -6.066    -5.670  0.2951  0.6423  0.7073
              Bcc     0.9987    38.519    13.745    12.849  0.6556  0.4024 -0.6390
 
              Baa    -0.5837   -78.333   -27.951   -26.129 -0.5802 -0.2628  0.7709
    26 C(13)  Bbb     0.1828    24.526     8.752     8.181 -0.2535  0.9578  0.1357
              Bcc     0.4010    53.807    19.200    17.948  0.7740  0.1167  0.6223
 
              Baa    -0.0573    -7.689    -2.744    -2.565  0.8310 -0.1345  0.5398
    27 C(13)  Bbb     0.0241     3.234     1.154     1.079 -0.2118  0.8208  0.5305
              Bcc     0.0332     4.455     1.590     1.486 -0.5145 -0.5551  0.6536
 
              Baa    -0.9727    70.386    25.116    23.478  0.6797  0.6716  0.2949
    28 O(17)  Bbb    -0.7452    53.921    19.240    17.986 -0.3772 -0.0248  0.9258
              Bcc     1.7179  -124.307   -44.356   -41.464 -0.6291  0.7405 -0.2365
 
              Baa    -0.2903  -154.899   -55.272   -51.669  0.2010  0.3178  0.9266
    29 H(1)   Bbb     0.1341    71.526    25.522    23.859  0.8350  0.4390 -0.3317
              Bcc     0.1563    83.373    29.750    27.810 -0.5122  0.8404 -0.1771
 
              Baa    -0.2924  -155.988   -55.660   -52.032  0.1292  0.9915 -0.0140
    30 H(1)   Bbb     0.1359    72.492    25.867    24.181  0.7441 -0.1063 -0.6596
              Bcc     0.1565    83.497    29.794    27.851  0.6555 -0.0748  0.7515
 
              Baa    -0.2963  -158.117   -56.420   -52.742  0.8448 -0.4325  0.3150
    31 H(1)   Bbb     0.1361    72.642    25.920    24.231 -0.4739 -0.3316  0.8157
              Bcc     0.1602    85.476    30.500    28.512  0.2484  0.8384  0.4852
 
              Baa    -0.3958  -211.205   -75.363   -70.451  0.2333 -0.0796  0.9691
    32 H(1)   Bbb     0.1557    83.100    29.652    27.719  0.9723  0.0351 -0.2312
              Bcc     0.2401   128.105    45.711    42.731 -0.0156  0.9962  0.0856
 
              Baa    -0.2870  -153.138   -54.643   -51.081  0.4631  0.8863  0.0053
    33 H(1)   Bbb     0.1343    71.639    25.562    23.896 -0.1239  0.0589  0.9905
              Bcc     0.1527    81.499    29.081    27.185  0.8776 -0.4594  0.1371
 
              Baa    -0.2939  -156.808   -55.953   -52.306  0.6579 -0.6486  0.3827
    34 H(1)   Bbb     0.1414    75.471    26.930    25.174 -0.1736  0.3639  0.9151
              Bcc     0.1524    81.337    29.023    27.131  0.7328  0.6685 -0.1268
 
              Baa    -0.2930  -156.349   -55.789   -52.152  0.7818 -0.0439 -0.6220
[...]
 **** Fit      -0.000944
 **** Fit      -0.000611
 **** Fit      -0.000007
 **** Fit      -0.003320
 **** Fit      -0.004332
 **** Fit      -0.005014
 **** Fit      -0.005292
 **** Fit      -0.005129
 **** Fit      -0.004533
 **** Fit      -0.003569
 **** Fit       0.001078
 **** Fit      -0.000078
 **** Fit      -0.001562
 **** Fit      -0.003415
 **** Fit       0.002084
 **** Fit       0.001329
 **** Fit       0.000342
 **** Fit      -0.000982
 **** Fit      -0.002728
 **** Fit      -0.004954
 **** Fit      -0.007670
 **** Fit       0.002176
 **** Fit       0.001588
 **** Fit       0.000776
 **** Fit      -0.000353
 **** Fit      -0.001887
 **** Fit      -0.003913
 **** Fit      -0.006517
 **** Fit      -0.009780
 **** Fit      -0.013743
 **** Fit       0.002652
 **** Fit       0.002275
 **** Fit       0.001803
 **** Fit       0.001087
 **** Fit       0.000037
 **** Fit      -0.001440
 **** Fit      -0.003445
 **** Fit      -0.006103
 **** Fit      -0.009571
 **** Fit      -0.014043
 **** Fit      -0.019728
 **** Fit       0.002606
 **** Fit       0.002376
 **** Fit       0.002016
 **** Fit       0.001401
 **** Fit       0.000449
 **** Fit      -0.000928
 **** Fit      -0.002834
 **** Fit      -0.005407
 **** Fit      -0.008838
 **** Fit      -0.013399
 **** Fit      -0.019482
 **** Fit       0.002711
 **** Fit       0.002570
 **** Fit       0.002479
 **** Fit       0.002211
 **** Fit       0.001669
 **** Fit       0.000775
 **** Fit      -0.000558
 **** Fit      -0.002438
 **** Fit      -0.005014
 **** Fit      -0.008508
 **** Fit      -0.013256
 **** Fit      -0.019789
 **** Fit       0.002525
 **** Fit       0.002551
 **** Fit       0.002592
 **** Fit       0.002395
 **** Fit       0.001871
 **** Fit       0.000940
 **** Fit      -0.000495
 **** Fit      -0.002565
 **** Fit      -0.005465
 **** Fit      -0.009498
 **** Fit      -0.015162
 **** Fit       0.002342
 **** Fit       0.002543
 **** Fit       0.002736
 **** Fit       0.002600
 **** Fit       0.002064
 **** Fit       0.001039
 **** Fit      -0.000590
 **** Fit      -0.002990
 **** Fit      -0.006432
 **** Fit      -0.011365
 **** Fit       0.002139
 **** Fit       0.002551
 **** Fit       0.002940
 **** Fit       0.002869
 **** Fit       0.002318
 **** Fit       0.001202
 **** Fit      -0.000607
 **** Fit      -0.003309
 **** Fit      -0.007243
 **** Fit      -0.012993
 **** Fit       0.001941
 **** Fit       0.002604
 **** Fit       0.003245
 **** Fit       0.003217
 **** Fit       0.002546
 **** Fit       0.001139
 **** Fit      -0.001173
 **** Fit      -0.004681
 **** Fit      -0.009894
 **** Fit       0.001627
 **** Fit       0.002694
 **** Fit       0.003689
 **** Fit       0.003688
 **** Fit       0.002857
 **** Fit       0.001115
 **** Fit      -0.001712
 **** Fit      -0.005907
 **** Fit       0.002881
 **** Fit       0.004276
 **** Fit       0.004244
 **** Fit       0.003107
 **** Fit       0.000881
 **** Fit       0.003139
 **** Fit      -0.000555
 **** Fit      -0.000071
 **** Fit      -0.001066
 **** Fit      -0.001590
 **** Fit      -0.001091
 **** Fit      -0.000248
 **** Fit       0.000261
 **** Fit       0.000408
 **** Fit      -0.000622
 **** Fit      -0.001803
 **** Fit      -0.002698
 **** Fit      -0.002950
 **** Fit      -0.002523
 **** Fit      -0.001717
 **** Fit      -0.000874
 **** Fit      -0.000125
 **** Fit       0.000525
 **** Fit       0.000966
 **** Fit       0.000971
 **** Fit      -0.000134
 **** Fit      -0.001442
 **** Fit      -0.002792
 **** Fit      -0.003942
 **** Fit      -0.004651
 **** Fit      -0.004763
 **** Fit      -0.004291
 **** Fit      -0.003434
 **** Fit      -0.002464
 **** Fit      -0.001582
 **** Fit      -0.000838
 **** Fit      -0.000167
 **** Fit       0.000505
 **** Fit      -0.002708
 **** Fit      -0.004323
 **** Fit      -0.005750
 **** Fit      -0.006784
 **** Fit      -0.007248
 **** Fit      -0.007059
 **** Fit      -0.006288
 **** Fit      -0.005154
 **** Fit      -0.003930
 **** Fit      -0.002830
 **** Fit      -0.001943
 **** Fit      -0.001231
 **** Fit      -0.000586
 **** Fit       0.000107
 **** Fit      -0.004634
 **** Fit      -0.006624
 **** Fit      -0.008406
 **** Fit      -0.009770
 **** Fit      -0.010507
 **** Fit      -0.010479
 **** Fit      -0.009693
 **** Fit      -0.008332
 **** Fit      -0.006702
 **** Fit      -0.005114
 **** Fit      -0.003781
 **** Fit      -0.002770
 **** Fit      -0.002018
 **** Fit      -0.001386
 **** Fit      -0.000718
 **** Fit      -0.009625
 **** Fit      -0.011887
 **** Fit      -0.013718
 **** Fit      -0.014868
 **** Fit      -0.015125
 **** Fit      -0.014409
 **** Fit      -0.012846
 **** Fit      -0.010748
 **** Fit      -0.008514
 **** Fit      -0.006489
 **** Fit      -0.004880
 **** Fit      -0.003731
 **** Fit      -0.002946
 **** Fit      -0.002351
 **** Fit      -0.014820
 **** Fit      -0.017769
 **** Fit      -0.020083
 **** Fit      -0.021380
 **** Fit      -0.021349
 **** Fit      -0.019915
 **** Fit      -0.017329
 **** Fit      -0.014118
 **** Fit      -0.010890
 **** Fit      -0.008124
 **** Fit      -0.006067
 **** Fit      -0.004727
 **** Fit      -0.003938
 **** Fit      -0.003420
 **** Fit      -0.022288
 **** Fit      -0.013717
 **** Fit      -0.009938
 **** Fit      -0.007329
 **** Fit      -0.005831
 **** Fit      -0.005156
 **** Fit       0.002516
 **** Fit       0.003021
 **** Fit       0.003416
 **** Fit       0.002436
 **** Fit       0.003065
 **** Fit       0.003459
 **** Fit       0.003556
 **** Fit       0.003689
 **** Fit       0.001628
 **** Fit       0.002363
 **** Fit       0.003044
 **** Fit       0.003557
 **** Fit       0.003860
 **** Fit       0.003955
 **** Fit       0.003878
 **** Fit       0.003859
 **** Fit       0.001178
 **** Fit       0.002011
 **** Fit       0.002784
 **** Fit       0.003414
 **** Fit       0.003870
 **** Fit       0.004146
 **** Fit       0.004254
 **** Fit       0.004216
 **** Fit       0.004069
 **** Fit       0.003922
 **** Fit       0.001260
 **** Fit       0.002173
 **** Fit       0.002950
 **** Fit       0.003561
 **** Fit       0.004003
 **** Fit       0.004285
 **** Fit       0.004420
 **** Fit       0.004424
 **** Fit       0.004320
 **** Fit       0.004139
 **** Fit       0.003880
 **** Fit       0.000326
 **** Fit       0.001400
 **** Fit       0.002313
 **** Fit       0.003046
 **** Fit       0.003607
 **** Fit       0.004013
 **** Fit       0.004283
 **** Fit       0.004431
 **** Fit       0.004468
 **** Fit       0.004410
 **** Fit       0.004273
 **** Fit       0.004085
 **** Fit       0.003737
 **** Fit       0.000768
 **** Fit       0.001848
 **** Fit       0.002673
 **** Fit       0.003284
 **** Fit       0.003725
 **** Fit       0.004030
 **** Fit       0.004222
 **** Fit       0.004315
 **** Fit       0.004319
 **** Fit       0.004244
 **** Fit       0.004103
 **** Fit       0.003922
 **** Fit       0.003498
 **** Fit      -0.000003
 **** Fit       0.001310
 **** Fit       0.002233
 **** Fit       0.002868
 **** Fit       0.003303
 **** Fit       0.003602
 **** Fit       0.003804
 **** Fit       0.003929
 **** Fit       0.003986
 **** Fit       0.003977
 **** Fit       0.003908
 **** Fit       0.003789
 **** Fit       0.003640
 **** Fit       0.001524
 **** Fit       0.002280
 **** Fit       0.002722
 **** Fit       0.002989
 **** Fit       0.003163
 **** Fit       0.003285
 **** Fit       0.003371
 **** Fit       0.003423
 **** Fit       0.003434
 **** Fit       0.003403
 **** Fit       0.003334
 **** Fit       0.003243
 **** Fit       0.002055
 **** Fit       0.002338
 **** Fit       0.002414
 **** Fit       0.002434
 **** Fit       0.002463
 **** Fit       0.002517
 **** Fit       0.002586
 **** Fit       0.002653
 **** Fit       0.002700
 **** Fit       0.002721
 **** Fit       0.002722
 **** Fit       0.001957
 **** Fit       0.001610
 **** Fit       0.001398
 **** Fit       0.001342
 **** Fit       0.001409
 **** Fit       0.001551
 **** Fit       0.001722
 **** Fit       0.001890
 **** Fit       0.000249
 **** Fit      -0.000132
 **** Fit      -0.000160
 **** Fit       0.000049
 **** Fit       0.000386
 **** Fit       0.000771
 **** Fit      -0.002046
 **** Fit      -0.002016
 **** Fit      -0.001530
 **** Fit      -0.001824
 **** Fit       0.004301
 **** Fit      -0.000450
 **** Fit      -0.008531
 **** Fit       0.008439
 **** Fit       0.005718
 **** Fit       0.001397
 **** Fit      -0.005387
 **** Fit       0.011288
 **** Fit       0.009179
 **** Fit       0.006433
 **** Fit       0.003102
 **** Fit      -0.001543
 **** Fit       0.013314
 **** Fit       0.011208
 **** Fit       0.008625
 **** Fit       0.006003
 **** Fit       0.003630
 **** Fit       0.014826
 **** Fit       0.012415
 **** Fit       0.009373
 **** Fit       0.006199
 **** Fit       0.016024
 **** Fit       0.013286
 **** Fit       0.009606
 **** Fit       0.017039
 **** Fit      -0.000801
 **** Fit       0.000731
 **** Fit      -0.000514
 **** Fit      -0.002464
 **** Fit      -0.002642
 **** Fit      -0.001129
 **** Fit       0.000351
 **** Fit       0.002009
 **** Fit       0.001403
 **** Fit      -0.000184
 **** Fit      -0.002588
 **** Fit      -0.004816
 **** Fit      -0.005618
 **** Fit      -0.004838
 **** Fit      -0.003261
 **** Fit      -0.001556
 **** Fit      -0.000043
 **** Fit       0.001123
 **** Fit       0.001847
 **** Fit       0.003098
 **** Fit       0.002864
 **** Fit       0.002008
 **** Fit       0.000312
 **** Fit      -0.002298
 **** Fit      -0.005433
 **** Fit      -0.008116
 **** Fit      -0.009336
 **** Fit      -0.008897
 **** Fit      -0.007417
 **** Fit      -0.005592
 **** Fit      -0.003784
 **** Fit      -0.002117
 **** Fit      -0.000641
 **** Fit       0.000611
 **** Fit       0.001621
 **** Fit       0.002389
 **** Fit       0.002900
 **** Fit       0.004077
 **** Fit       0.004103
 **** Fit       0.003711
 **** Fit       0.002685
 **** Fit       0.000751
 **** Fit      -0.002299
 **** Fit      -0.006316
 **** Fit      -0.010502
 **** Fit      -0.013571
 **** Fit      -0.014563
 **** Fit      -0.013587
 **** Fit      -0.011539
 **** Fit      -0.009250
 **** Fit      -0.007098
 **** Fit      -0.005150
 **** Fit      -0.003384
 **** Fit      -0.001793
 **** Fit      -0.000394
 **** Fit       0.000800
 **** Fit       0.001793
 **** Fit       0.002610
 **** Fit       0.003270
 **** Fit       0.003771
 **** Fit       0.005043
 **** Fit       0.005308
 **** Fit       0.005284
 **** Fit       0.004804
 **** Fit       0.003587
 **** Fit       0.001233
 **** Fit      -0.002638
 **** Fit      -0.008030
 **** Fit      -0.014141
 **** Fit      -0.019299
 **** Fit      -0.021161
 **** Fit      -0.018510
 **** Fit      -0.015280
 **** Fit      -0.012306
 **** Fit      -0.009766
 **** Fit      -0.007556
 **** Fit      -0.005555
 **** Fit      -0.003713
 **** Fit      -0.002040
 **** Fit      -0.000569
 **** Fit       0.000679
 **** Fit       0.001721
 **** Fit       0.002598
 **** Fit       0.003354
 **** Fit       0.004019
 **** Fit       0.004592
 **** Fit       0.006997
 **** Fit       0.006578
 **** Fit       0.005313
 **** Fit       0.002611
 **** Fit      -0.002164
 **** Fit      -0.009273
 **** Fit      -0.023777
 **** Fit      -0.019309
 **** Fit      -0.015726
 **** Fit      -0.012872
 **** Fit      -0.010436
 **** Fit      -0.008205
 **** Fit      -0.006090
 **** Fit      -0.004097
 **** Fit       0.007894
 **** Fit      -0.023596
 **** Fit      -0.019442
 **** Fit      -0.016301
 **** Fit      -0.013582
 **** Fit      -0.004200
 **** Fit      -0.002395
 **** Fit      -0.000860
 **** Fit       0.000386
 **** Fit      -0.006693
 **** Fit      -0.004408
 **** Fit      -0.002465
 **** Fit      -0.000883
 **** Fit       0.000366
 **** Fit       0.001346
 **** Fit       0.002144
 **** Fit      -0.012989
 **** Fit      -0.009744
 **** Fit      -0.006883
 **** Fit      -0.004464
 **** Fit      -0.002478
 **** Fit      -0.000890
 **** Fit       0.000355
 **** Fit       0.001321
 **** Fit       0.002083
 **** Fit       0.002733
 **** Fit      -0.017069
 **** Fit      -0.012732
 **** Fit      -0.009091
 **** Fit      -0.006103
 **** Fit      -0.003693
 **** Fit      -0.001781
 **** Fit      -0.000288
 **** Fit       0.000859
 **** Fit       0.001738
 **** Fit       0.002431
 **** Fit       0.003036
 **** Fit      -0.022107
 **** Fit      -0.016373
 **** Fit      -0.011793
 **** Fit      -0.008149
 **** Fit      -0.005261
 **** Fit      -0.002984
 **** Fit      -0.001207
 **** Fit       0.000164
 **** Fit       0.001210
 **** Fit       0.002012
 **** Fit       0.002653
 **** Fit       0.003232
 **** Fit      -0.017061
 **** Fit      -0.012098
 **** Fit      -0.008268
 **** Fit      -0.005294
 **** Fit      -0.002984
 **** Fit      -0.001198
 **** Fit       0.000171
 **** Fit       0.001213
 **** Fit       0.002012
 **** Fit       0.002656
 **** Fit       0.003245
 **** Fit      -0.022613
 **** Fit      -0.015890
 **** Fit      -0.010931
 **** Fit      -0.007201
 **** Fit      -0.004367
 **** Fit      -0.002209
 **** Fit      -0.000572
 **** Fit       0.000663
 **** Fit       0.001599
 **** Fit       0.002337
 **** Fit       0.002985
 **** Fit       0.003679
 **** Fit      -0.016285
 **** Fit      -0.010979
 **** Fit      -0.007088
 **** Fit      -0.004196
 **** Fit      -0.002036
 **** Fit      -0.000425
 **** Fit       0.000779
 **** Fit       0.001702
 **** Fit       0.002468
 **** Fit       0.003219
 **** Fit      -0.016188
 **** Fit      -0.010812
 **** Fit      -0.006926
 **** Fit      -0.004074
 **** Fit      -0.001968
 **** Fit      -0.000407
 **** Fit       0.000770
 **** Fit       0.001707
 **** Fit       0.002553
 **** Fit      -0.013726
 **** Fit      -0.008827
 **** Fit      -0.005350
 **** Fit      -0.002851
 **** Fit      -0.001035
 **** Fit       0.000321
 **** Fit       0.001415
 **** Fit      -0.016997
 **** Fit      -0.010963
 **** Fit      -0.006790
 **** Fit      -0.003862
 **** Fit      -0.001773
 **** Fit      -0.000221
 **** Fit      -0.015147
 **** Fit      -0.009462
 **** Fit      -0.005605
 **** Fit      -0.002959
 **** Fit      -0.001064
 **** Fit      -0.008666
 **** Fit      -0.004788
 **** Fit       0.007855
 **** Fit       0.008679
 **** Fit       0.009459
 **** Fit       0.007018
 **** Fit       0.008611
 **** Fit       0.009579
 **** Fit       0.010461
 **** Fit       0.011327
 **** Fit       0.012437
 **** Fit       0.006716
 **** Fit       0.007629
 **** Fit       0.009460
 **** Fit       0.010605
 **** Fit       0.011616
 **** Fit       0.012485
 **** Fit       0.013495
 **** Fit       0.015150
 **** Fit       0.006396
 **** Fit       0.007295
 **** Fit       0.008325
 **** Fit       0.010280
 **** Fit       0.011691
 **** Fit       0.012923
 **** Fit       0.013861
 **** Fit       0.014816
 **** Fit       0.016446
 **** Fit       0.005906
 **** Fit       0.006754
 **** Fit       0.007761
 **** Fit       0.008936
 **** Fit       0.010896
 **** Fit       0.015967
 **** Fit       0.017393
 **** Fit       0.006185
 **** Fit       0.007099
 **** Fit       0.008171
 **** Fit       0.009427
 **** Fit       0.011166
 **** Fit       0.005551
 **** Fit       0.006356
 **** Fit       0.007316
 **** Fit       0.008421
 **** Fit       0.009694
 **** Fit       0.011143
 **** Fit       0.005432
 **** Fit       0.006292
 **** Fit       0.007304
 **** Fit       0.008446
 **** Fit       0.009723
 **** Fit       0.010993
 **** Fit       0.012429
 **** Fit       0.013869
 **** Fit       0.015249
 **** Fit       0.006058
 **** Fit       0.007130
 **** Fit       0.008318
 **** Fit       0.009611
 **** Fit       0.010722
 **** Fit       0.012038
 **** Fit       0.013240
 **** Fit       0.014218
 **** Fit       0.014835
 **** Fit       0.005744
 **** Fit       0.006866
 **** Fit       0.008086
 **** Fit       0.009383
 **** Fit       0.010169
 **** Fit       0.011337
 **** Fit       0.012164
 **** Fit       0.012411
 **** Fit       0.006227
 **** Fit       0.007516
 **** Fit       0.008852
 **** Fit       0.009218
 **** Fit       0.010064
 **** Fit       0.010244
 **** Fit       0.005396
 **** Fit       0.006722
 **** Fit       0.008033
 **** Fit       0.007876
 **** Fit       0.008225
 **** Fit       0.007315
 **** Fit       0.005581
 **** Fit       0.006873
 **** Fit       0.006226
 **** Fit       0.005746
 **** Fit       0.005396
 -----------------------------------------------------------------
 Leave Link  602 at Fri Nov 22 06:55:05 2019, MaxMem=   33554432 cpu:       5.5

 Test job not archived.
 1\1\GINC-MOSURA\FOpt\RHF\6-31G(d)\C20H36N4O4\MARIE\22-Nov-2019\0\\#HF/
 6-31G* SCF=tight Test Pop=MK iop(6/33=2) iop(6/42=6) opt\\remark line 
 goes here\\0,1\C,-7.8724268876,-1.4738898722,0.4288497023\N,-6.6967535
 422,-0.7426112808,0.8566990059\C,-5.5188149537,-0.929102806,0.22603680
 86\O,-5.3575596647,-1.7931379276,-0.5945637199\C,-4.3111107724,-0.0683
 595837,0.6697507507\C,-4.6802526391,1.1779009232,1.4845726361\C,-3.416
 1838498,-1.026190408,1.4912434112\C,-2.1291338891,-0.4170870542,2.0584
 879888\C,-1.2021722484,-1.4613104002,2.7074445811\C,-0.634744057,-2.46
 80520601,1.7354559884\C,0.5766441704,-2.4868564785,1.2025919599\C,1.71
 06859019,-1.5180233385,1.413608243\C,2.1458841122,-0.8485633178,0.1016
 74099\C,3.3186173516,0.1095228741,0.3255210956\C,3.9571307951,0.724298
 4907,-0.9364213335\C,2.890583856,1.4131991344,-1.7996756271\N,4.937005
 172,1.7040106768,-0.4278781511\C,5.6331244516,2.6319858542,-1.11788657
 06\C,6.5805778995,3.4769982567,-0.2921861209\O,5.5513866021,2.79272075
 81,-2.3112698883\C,4.7179386943,-0.3793726606,-1.7166207908\O,4.863717
 6247,-1.4822024523,-1.2552117122\N,5.1924967786,-0.0354714588,-2.92672
 8249\C,6.0123679995,-0.9590651057,-3.6811735902\N,-3.5736603632,0.3148
 946858,-0.5308266126\C,-4.1896946271,0.9520448311,-1.5663134626\C,-3.4
 157033954,0.9622199035,-2.8649233204\O,-5.2697243829,1.466002354,-1.46
 15381977\H,-7.6572905048,-2.5319541674,0.4164260016\H,-8.1933157059,-1
 .1766953764,-0.5634872082\H,-8.6719837172,-1.2851015923,1.1333102363\H
 ,-6.8475836611,0.1245205597,1.3148271885\H,-5.39411056,1.7958535731,0.
 9594115178\H,-5.0832308851,0.900989095,2.454202657\H,-3.7938170365,1.7
 748028063,1.6518963473\H,-3.1838987079,-1.871563449,0.8539777074\H,-4.
 0128830673,-1.4178320121,2.3111732958\H,-2.3781627722,0.3264534604,2.8
 09180263\H,-1.5801330154,0.1014220109,1.2782434366\H,-0.4031003494,-0.
 9371796565,3.2182304287\H,-1.7552530122,-1.9938693538,3.4786523913\H,-
 1.3059040784,-3.2616005216,1.4482614351\H,0.8035478403,-3.2921655422,0
 .5203784991\H,2.5600446616,-2.0606158075,1.8243629826\H,1.4453132307,-
 0.7573906568,2.1398313997\H,2.4278620654,-1.6126076508,-0.611699606\H,
 1.2963339632,-0.3139949327,-0.3126653951\H,2.9799422033,0.9374700737,0
 .9453314115\H,4.0947517997,-0.4132115166,0.873319383\H,3.3225670171,1.
 9920601711,-2.5993451657\H,2.2277204053,0.6744948135,-2.233099336\H,2.
 3022009614,2.0808838527,-1.1789449297\H,5.1539478843,1.6184957264,0.53
 86630294\H,6.3372068839,3.4902881062,0.7632102093\H,7.585581309,3.0863
 652787,-0.4130096945\H,6.5665957894,4.4861243915,-0.6799579601\H,5.247
 1624876,0.9349501906,-3.1482776779\H,6.9601650494,-1.1558496465,-3.190
 8681126\H,5.4947613239,-1.8996727269,-3.804861171\H,6.2023742066,-0.53
 0728025,-4.6561651053\H,-2.8496091759,-0.3155787036,-0.7961156955\H,-3
 .598199367,0.0270821918,-3.3858226349\H,-3.7703322694,1.7758648337,-3.
 4808001256\H,-2.3484973331,1.0609876647,-2.7024889264\\Version=EM64L-G
 09RevA.02\State=1-A\HF=-1295.6304269\RMSD=7.793e-09\RMSF=1.537e-06\Dip
 ole=0.8640399,1.0371425,1.5746897\Quadrupole=3.0935538,-8.6507655,5.55
 72117,9.1918794,-5.9011057,6.485182\PG=C01 [X(C20H36N4O4)]\\@


 A SOLDIER'S LIFE IS A LIFE OF HONOR, BUT A DOG WOULD NOT LEAD IT.
 -- PRINCE RUPERT, FOUNDER OF THE HUDSON'S BAY COMPANY
 Job cpu time:  0 days  2 hours 51 minutes 41.1 seconds.
 File lengths (MBytes):  RWF=    156 Int=      0 D2E=      0 Chk=     17 Scr=      1
 Normal termination of Gaussian 09 at Fri Nov 22 06:55:05 2019.
