 Entering Gaussian System, Link 0=g09
 Input=19.gau
 Output=19.log
 Initial command:
 /home/marie/Utilities//g09/l1.exe /tmp/g09/Gau-23564.inp -scrdir=/tmp/g09/
 Entering Link 1 = /home/marie/Utilities//g09/l1.exe PID=     23566.
  
 Copyright (c) 1988,1990,1992,1993,1995,1998,2003,2009, Gaussian, Inc.
                  All Rights Reserved.
  
 This is part of the Gaussian(R) 09 program.  It is based on
 the Gaussian(R) 03 system (copyright 2003, Gaussian, Inc.),
 the Gaussian(R) 98 system (copyright 1998, Gaussian, Inc.),
 the Gaussian(R) 94 system (copyright 1995, Gaussian, Inc.),
 the Gaussian 92(TM) system (copyright 1992, Gaussian, Inc.),
 the Gaussian 90(TM) system (copyright 1990, Gaussian, Inc.),
 the Gaussian 88(TM) system (copyright 1988, Gaussian, Inc.),
 the Gaussian 86(TM) system (copyright 1986, Carnegie Mellon
 University), and the Gaussian 82(TM) system (copyright 1983,
 Carnegie Mellon University). Gaussian is a federally registered
 trademark of Gaussian, Inc.
  
 This software contains proprietary and confidential information,
 including trade secrets, belonging to Gaussian, Inc.
  
 This software is provided under written license and may be
 used, copied, transmitted, or stored only in accord with that
 written license.
  
 The following legend is applicable only to US Government
 contracts under FAR:
  
                    RESTRICTED RIGHTS LEGEND
  
 Use, reproduction and disclosure by the US Government is
 subject to restrictions as set forth in subparagraphs (a)
 and (c) of the Commercial Computer Software - Restricted
 Rights clause in FAR 52.227-19.
  
 Gaussian, Inc.
 340 Quinnipiac St., Bldg. 40, Wallingford CT 06492
  
  
 ---------------------------------------------------------------
 Warning -- This program may not be used in any manner that
 competes with the business of Gaussian, Inc. or will provide
 assistance to any competitor of Gaussian, Inc.  The licensee
 of this program is prohibited from giving any competitor of
 Gaussian, Inc. access to this program.  By using this program,
 the user acknowledges that Gaussian, Inc. is engaged in the
 business of creating and licensing software in the field of
 computational chemistry and represents and warrants to the
 licensee that it is not a competitor of Gaussian, Inc. and that
 it will not use this program in any manner prohibited above.
 ---------------------------------------------------------------
  

 Cite this work as:
 Gaussian 09, Revision A.02,
 M. J. Frisch, G. W. Trucks, H. B. Schlegel, G. E. Scuseria, 
 M. A. Robb, J. R. Cheeseman, G. Scalmani, V. Barone, B. Mennucci, 
 G. A. Petersson, H. Nakatsuji, M. Caricato, X. Li, H. P. Hratchian, 
 A. F. Izmaylov, J. Bloino, G. Zheng, J. L. Sonnenberg, M. Hada, 
 M. Ehara, K. Toyota, R. Fukuda, J. Hasegawa, M. Ishida, T. Nakajima, 
 Y. Honda, O. Kitao, H. Nakai, T. Vreven, J. A. Montgomery, Jr., 
 J. E. Peralta, F. Ogliaro, M. Bearpark, J. J. Heyd, E. Brothers, 
 K. N. Kudin, V. N. Staroverov, R. Kobayashi, J. Normand, 
 K. Raghavachari, A. Rendell, J. C. Burant, S. S. Iyengar, J. Tomasi, 
 M. Cossi, N. Rega, J. M. Millam, M. Klene, J. E. Knox, J. B. Cross, 
 V. Bakken, C. Adamo, J. Jaramillo, R. Gomperts, R. E. Stratmann, 
 O. Yazyev, A. J. Austin, R. Cammi, C. Pomelli, J. W. Ochterski, 
 R. L. Martin, K. Morokuma, V. G. Zakrzewski, G. A. Voth, 
 P. Salvador, J. J. Dannenberg, S. Dapprich, A. D. Daniels, 
 O. Farkas, J. B. Foresman, J. V. Ortiz, J. Cioslowski, 
 and D. J. Fox, Gaussian, Inc., Wallingford CT, 2009.
 
 ******************************************
 Gaussian 09:  EM64L-G09RevA.02 11-Jun-2009
                22-Nov-2019 
 ******************************************
 %chk=conf19
 ------------------------------------------------------------
 #HF/6-31G* SCF=tight Test Pop=MK iop(6/33=2) iop(6/42=6) opt
 ------------------------------------------------------------
 1/18=20,19=15,38=1/1,3;
 2/9=110,12=2,17=6,18=5,40=1/2;
 3/5=1,6=6,7=1,11=9,16=1,25=1,30=1,71=1/1,2,3;
 4//1;
 5/5=2,32=2,38=5/2;
 6/7=2,8=2,9=2,10=2,15=8,20=1,28=1,33=2,42=6/1,2;
 7//1,2,3,16;
 1/18=20,19=15/3(2);
 2/9=110/2;
 99//99;
 2/9=110/2;
 3/5=1,6=6,7=1,11=9,16=1,25=1,30=1,71=1/1,2,3;
 4/5=5,16=3/1;
 5/5=2,32=2,38=5/2;
 7//1,2,3,16;
 1/18=20,19=15/3(-5);
 2/9=110/2;
 6/7=2,8=2,9=2,10=2,15=8,19=2,20=1,28=1,33=2,42=6/1,2;
 99/9=1/99;
 ---------------------
 remark line goes here
 ---------------------
 Symbolic Z-matrix:
 Charge =  0 Multiplicity = 1
 C                    -4.86     -1.918     4.272 
 N                    -4.65     -1.003     3.177 
 C                    -5.428    -1.101     2.038 
 O                    -6.422    -1.83      1.996 
 C                    -5.093    -0.103     0.88 
 C                    -5.847     1.199     1.263 
 C                    -3.603     0.31      0.718 
 C                    -2.56     -0.787     0.491 
 C                    -1.141    -0.254     0.722 
 C                    -0.11     -1.321     0.491 
 C                     0.785    -1.38     -0.509 
 C                     0.919    -0.421    -1.658 
 C                     2.01      0.634    -1.443 
 C                     3.425     0.035    -1.38 
 C                     4.553     1.082    -1.164 
 C                     4.578     2.084    -2.33 
 N                     4.349     1.732     0.149 
 C                     5.034     2.861     0.544 
 C                     4.87      3.182     2.007 
 O                     5.723     3.556    -0.193 
 C                     5.888     0.273    -1.042 
 O                     6.359    -0.039     0.054 
 N                     6.432    -0.187    -2.226 
 C                     7.687    -0.897    -2.222 
 N                    -5.713    -0.59     -0.371 
 C                    -5.397    -1.798    -0.956 
 C                    -6.275    -2.14     -2.131 
 O                    -4.521    -2.56     -0.567 
 H                    -5.924    -1.973     4.519 
 H                    -4.296    -1.561     5.137 
 H                    -4.502    -2.908     3.978 
 H                    -3.726    -0.605     3.093 
 H                    -5.756     1.956     0.475 
 H                    -6.918     1.01      1.41 
 H                    -5.465     1.629     2.196 
 H                    -3.525     1.018    -0.119 
 H                    -3.302     0.878     1.609 
 H                    -2.623    -1.143    -0.542 
 H                    -2.74     -1.638     1.158 
 H                    -1.041     0.094     1.757 
 H                    -0.965     0.622     0.088 
 H                    -0.093    -2.121     1.231 
 H                     1.472    -2.225    -0.521 
 H                     1.133    -0.996    -2.567 
 H                    -0.033     0.086    -1.85 
 H                     1.797     1.196    -0.526 
 H                     1.952     1.346    -2.274 
 H                     3.469    -0.703    -0.568 
 H                     3.613    -0.525    -2.306 
 H                     3.807     2.854    -2.215 
 H                     4.405     1.586    -3.291 
 H                     5.546     2.589    -2.415 
 H                     4.203     1.069     0.902 
 H                     5.756     2.842     2.55 
 H                     4.755     4.263     2.126 
 H                     3.983     2.697     2.425 
 H                     6.165     0.268    -3.088 
 H                     8.493    -0.184    -2.028 
 H                     7.684    -1.665    -1.444 
 H                     7.828    -1.359    -3.201 
 H                    -6.686    -0.335    -0.487 
 H                    -6.738    -1.245    -2.557 
 H                    -7.057    -2.83     -1.806 
 H                    -5.666    -2.61     -2.909 
 

 GradGradGradGradGradGradGradGradGradGradGradGradGradGradGradGradGradGrad
 Berny optimization.
 Initialization pass.
                           ----------------------------
                           !    Initial Parameters    !
                           ! (Angstroms and Degrees)  !
 --------------------------                            --------------------------
 ! Name  Definition              Value          Derivative Info.                !
 --------------------------------------------------------------------------------
 ! R1    R(1,2)                  1.4423         estimate D2E/DX2                !
 ! R2    R(1,29)                 1.0937         estimate D2E/DX2                !
 ! R3    R(1,30)                 1.0926         estimate D2E/DX2                !
 ! R4    R(1,31)                 1.093          estimate D2E/DX2                !
 ! R5    R(2,3)                  1.3828         estimate D2E/DX2                !
 ! R6    R(2,32)                 1.0096         estimate D2E/DX2                !
 ! R7    R(3,4)                  1.2334         estimate D2E/DX2                !
 ! R8    R(3,5)                  1.565          estimate D2E/DX2                !
 ! R9    R(5,6)                  1.5525         estimate D2E/DX2                !
 ! R10   R(5,7)                  1.5546         estimate D2E/DX2                !
 ! R11   R(5,25)                 1.4787         estimate D2E/DX2                !
 ! R12   R(6,33)                 1.0965         estimate D2E/DX2                !
 ! R13   R(6,34)                 1.0974         estimate D2E/DX2                !
 ! R14   R(6,35)                 1.096          estimate D2E/DX2                !
 ! R15   R(7,8)                  1.5306         estimate D2E/DX2                !
 ! R16   R(7,36)                 1.0991         estimate D2E/DX2                !
 ! R17   R(7,37)                 1.0987         estimate D2E/DX2                !
 ! R18   R(8,9)                  1.5333         estimate D2E/DX2                !
 ! R19   R(8,38)                 1.0944         estimate D2E/DX2                !
 ! R20   R(8,39)                 1.0961         estimate D2E/DX2                !
 ! R21   R(9,10)                 1.5016         estimate D2E/DX2                !
 ! R22   R(9,40)                 1.0965         estimate D2E/DX2                !
 ! R23   R(9,41)                 1.0956         estimate D2E/DX2                !
 ! R24   R(10,11)                1.3433         estimate D2E/DX2                !
 ! R25   R(10,42)                1.0899         estimate D2E/DX2                !
 ! R26   R(11,12)                1.5026         estimate D2E/DX2                !
 ! R27   R(11,43)                1.0891         estimate D2E/DX2                !
 ! R28   R(12,13)                1.5328         estimate D2E/DX2                !
 ! R29   R(12,44)                1.0967         estimate D2E/DX2                !
 ! R30   R(12,45)                1.0955         estimate D2E/DX2                !
 ! R31   R(13,14)                1.5379         estimate D2E/DX2                !
 ! R32   R(13,46)                1.0964         estimate D2E/DX2                !
 ! R33   R(13,47)                1.0958         estimate D2E/DX2                !
 ! R34   R(14,15)                1.5541         estimate D2E/DX2                !
 ! R35   R(14,48)                1.0981         estimate D2E/DX2                !
 ! R36   R(14,49)                1.0984         estimate D2E/DX2                !
 ! R37   R(15,16)                1.5376         estimate D2E/DX2                !
 ! R38   R(15,17)                1.4792         estimate D2E/DX2                !
 ! R39   R(15,21)                1.5658         estimate D2E/DX2                !
 ! R40   R(16,50)                1.0957         estimate D2E/DX2                !
 ! R41   R(16,51)                1.0961         estimate D2E/DX2                !
 ! R42   R(16,52)                1.0951         estimate D2E/DX2                !
 ! R43   R(17,18)                1.3784         estimate D2E/DX2                !
 ! R44   R(17,53)                1.0139         estimate D2E/DX2                !
 ! R45   R(18,19)                1.5068         estimate D2E/DX2                !
 ! R46   R(18,20)                1.2251         estimate D2E/DX2                !
 ! R47   R(19,54)                1.0934         estimate D2E/DX2                !
 ! R48   R(19,55)                1.0936         estimate D2E/DX2                !
 ! R49   R(19,56)                1.0939         estimate D2E/DX2                !
 ! R50   R(21,22)                1.233          estimate D2E/DX2                !
 ! R51   R(21,23)                1.3818         estimate D2E/DX2                !
 ! R52   R(23,24)                1.4419         estimate D2E/DX2                !
 ! R53   R(23,57)                1.0106         estimate D2E/DX2                !
 ! R54   R(24,58)                1.0935         estimate D2E/DX2                !
 ! R55   R(24,59)                1.0932         estimate D2E/DX2                !
 ! R56   R(24,60)                1.0917         estimate D2E/DX2                !
 ! R57   R(25,26)                1.3789         estimate D2E/DX2                !
 ! R58   R(25,61)                1.0125         estimate D2E/DX2                !
 ! R59   R(26,27)                1.5061         estimate D2E/DX2                !
 ! R60   R(26,28)                1.2245         estimate D2E/DX2                !
 ! R61   R(27,62)                1.094          estimate D2E/DX2                !
 ! R62   R(27,63)                1.0924         estimate D2E/DX2                !
 ! R63   R(27,64)                1.0941         estimate D2E/DX2                !
 ! A1    A(2,1,29)             110.1821         estimate D2E/DX2                !
 ! A2    A(2,1,30)             108.5782         estimate D2E/DX2                !
 ! A3    A(2,1,31)             108.8263         estimate D2E/DX2                !
 ! A4    A(29,1,30)            109.8663         estimate D2E/DX2                !
 ! A5    A(29,1,31)            109.5022         estimate D2E/DX2                !
 ! A6    A(30,1,31)            109.8661         estimate D2E/DX2                !
 ! A7    A(1,2,3)              119.8972         estimate D2E/DX2                !
 ! A8    A(1,2,32)             116.5202         estimate D2E/DX2                !
 ! A9    A(3,2,32)             118.316          estimate D2E/DX2                !
 ! A10   A(2,3,4)              121.5575         estimate D2E/DX2                !
 ! A11   A(2,3,5)              116.3494         estimate D2E/DX2                !
 ! A12   A(4,3,5)              121.6167         estimate D2E/DX2                !
 ! A13   A(3,5,6)              104.3767         estimate D2E/DX2                !
 ! A14   A(3,5,7)              116.8511         estimate D2E/DX2                !
 ! A15   A(3,5,25)             109.0397         estimate D2E/DX2                !
 ! A16   A(6,5,7)              105.5679         estimate D2E/DX2                !
 ! A17   A(6,5,25)             106.336          estimate D2E/DX2                !
 ! A18   A(7,5,25)             113.6523         estimate D2E/DX2                !
 ! A19   A(5,6,33)             111.1851         estimate D2E/DX2                !
 ! A20   A(5,6,34)             111.2581         estimate D2E/DX2                !
 ! A21   A(5,6,35)             111.6995         estimate D2E/DX2                !
 ! A22   A(33,6,34)            107.2268         estimate D2E/DX2                !
 ! A23   A(33,6,35)            108.1784         estimate D2E/DX2                !
 ! A24   A(34,6,35)            107.0779         estimate D2E/DX2                !
 ! A25   A(5,7,8)              118.5645         estimate D2E/DX2                !
 ! A26   A(5,7,36)             108.5729         estimate D2E/DX2                !
 ! A27   A(5,7,37)             108.3853         estimate D2E/DX2                !
 ! A28   A(8,7,36)             107.481          estimate D2E/DX2                !
 ! A29   A(8,7,37)             107.7046         estimate D2E/DX2                !
 ! A30   A(36,7,37)            105.3746         estimate D2E/DX2                !
 ! A31   A(7,8,9)              111.0478         estimate D2E/DX2                !
 ! A32   A(7,8,38)             109.5048         estimate D2E/DX2                !
 ! A33   A(7,8,39)             110.7495         estimate D2E/DX2                !
 ! A34   A(9,8,38)             107.9715         estimate D2E/DX2                !
 ! A35   A(9,8,39)             109.2796         estimate D2E/DX2                !
 ! A36   A(38,8,39)            108.2013         estimate D2E/DX2                !
 ! A37   A(8,9,10)             111.422          estimate D2E/DX2                !
 ! A38   A(8,9,40)             109.6898         estimate D2E/DX2                !
 ! A39   A(8,9,41)             109.8422         estimate D2E/DX2                !
 ! A40   A(10,9,40)            107.9451         estimate D2E/DX2                !
 ! A41   A(10,9,41)            111.6437         estimate D2E/DX2                !
 ! A42   A(40,9,41)            106.1297         estimate D2E/DX2                !
 ! A43   A(9,10,11)            127.0982         estimate D2E/DX2                !
 ! A44   A(9,10,42)            115.3299         estimate D2E/DX2                !
 ! A45   A(11,10,42)           117.5682         estimate D2E/DX2                !
 ! A46   A(10,11,12)           126.9145         estimate D2E/DX2                !
 ! A47   A(10,11,43)           117.552          estimate D2E/DX2                !
 ! A48   A(12,11,43)           115.4993         estimate D2E/DX2                !
 ! A49   A(11,12,13)           113.2965         estimate D2E/DX2                !
 ! A50   A(11,12,44)           108.4565         estimate D2E/DX2                !
 ! A51   A(11,12,45)           110.6022         estimate D2E/DX2                !
 ! A52   A(13,12,44)           109.7698         estimate D2E/DX2                !
 ! A53   A(13,12,45)           108.939          estimate D2E/DX2                !
 ! A54   A(44,12,45)           105.4826         estimate D2E/DX2                !
 ! A55   A(12,13,14)           113.114          estimate D2E/DX2                !
 ! A56   A(12,13,46)           109.3803         estimate D2E/DX2                !
 ! A57   A(12,13,47)           107.6472         estimate D2E/DX2                !
 ! A58   A(14,13,46)           110.1295         estimate D2E/DX2                !
 ! A59   A(14,13,47)           109.441          estimate D2E/DX2                !
 ! A60   A(46,13,47)           106.9127         estimate D2E/DX2                !
 ! A61   A(13,14,15)           114.2753         estimate D2E/DX2                !
 ! A62   A(13,14,48)           109.2033         estimate D2E/DX2                !
 ! A63   A(13,14,49)           108.756          estimate D2E/DX2                !
 ! A64   A(15,14,48)           108.7174         estimate D2E/DX2                !
 ! A65   A(15,14,49)           109.6592         estimate D2E/DX2                !
 ! A66   A(48,14,49)           105.896          estimate D2E/DX2                !
 ! A67   A(14,15,16)           110.2082         estimate D2E/DX2                !
 ! A68   A(14,15,17)           108.6211         estimate D2E/DX2                !
 ! A69   A(14,15,21)           106.3552         estimate D2E/DX2                !
 ! A70   A(16,15,17)           112.8924         estimate D2E/DX2                !
 ! A71   A(16,15,21)           112.4533         estimate D2E/DX2                !
 ! A72   A(17,15,21)           105.9898         estimate D2E/DX2                !
 ! A73   A(15,16,50)           111.5261         estimate D2E/DX2                !
 ! A74   A(15,16,51)           111.4823         estimate D2E/DX2                !
 ! A75   A(15,16,52)           111.9466         estimate D2E/DX2                !
 ! A76   A(50,16,51)           107.4721         estimate D2E/DX2                !
 ! A77   A(50,16,52)           107.8222         estimate D2E/DX2                !
 ! A78   A(51,16,52)           106.3182         estimate D2E/DX2                !
 ! A79   A(15,17,18)           123.0764         estimate D2E/DX2                !
 ! A80   A(15,17,53)           113.064          estimate D2E/DX2                !
 ! A81   A(18,17,53)           113.2261         estimate D2E/DX2                !
 ! A82   A(17,18,19)           113.4943         estimate D2E/DX2                !
 ! A83   A(17,18,20)           124.8729         estimate D2E/DX2                !
 ! A84   A(19,18,20)           121.6321         estimate D2E/DX2                !
 ! A85   A(18,19,54)           109.133          estimate D2E/DX2                !
 ! A86   A(18,19,55)           109.1286         estimate D2E/DX2                !
 ! A87   A(18,19,56)           111.3958         estimate D2E/DX2                !
 ! A88   A(54,19,55)           109.7891         estimate D2E/DX2                !
 ! A89   A(54,19,56)           109.2333         estimate D2E/DX2                !
 ! A90   A(55,19,56)           108.1436         estimate D2E/DX2                !
 ! A91   A(15,21,22)           121.7141         estimate D2E/DX2                !
 ! A92   A(15,21,23)           116.1617         estimate D2E/DX2                !
 ! A93   A(22,21,23)           121.803          estimate D2E/DX2                !
 ! A94   A(21,23,24)           120.2778         estimate D2E/DX2                !
 ! A95   A(21,23,57)           118.4867         estimate D2E/DX2                !
 ! A96   A(24,23,57)           117.0004         estimate D2E/DX2                !
 ! A97   A(23,24,58)           108.722          estimate D2E/DX2                !
 ! A98   A(23,24,59)           110.2125         estimate D2E/DX2                !
 ! A99   A(23,24,60)           108.5608         estimate D2E/DX2                !
 ! A100  A(58,24,59)           109.5023         estimate D2E/DX2                !
 ! A101  A(58,24,60)           109.8681         estimate D2E/DX2                !
 ! A102  A(59,24,60)           109.9534         estimate D2E/DX2                !
 ! A103  A(5,25,26)            123.4604         estimate D2E/DX2                !
 ! A104  A(5,25,61)            114.6389         estimate D2E/DX2                !
 ! A105  A(26,25,61)           113.0947         estimate D2E/DX2                !
 ! A106  A(25,26,27)           113.3477         estimate D2E/DX2                !
 ! A107  A(25,26,28)           125.0542         estimate D2E/DX2                !
 ! A108  A(27,26,28)           121.5724         estimate D2E/DX2                !
 ! A109  A(26,27,62)           111.3907         estimate D2E/DX2                !
 ! A110  A(26,27,63)           109.1865         estimate D2E/DX2                !
 ! A111  A(26,27,64)           109.1358         estimate D2E/DX2                !
 ! A112  A(62,27,63)           109.2467         estimate D2E/DX2                !
 ! A113  A(62,27,64)           108.0657         estimate D2E/DX2                !
 ! A114  A(63,27,64)           109.7971         estimate D2E/DX2                !
 ! D1    D(29,1,2,3)           -48.717          estimate D2E/DX2                !
 ! D2    D(29,1,2,32)          157.3332         estimate D2E/DX2                !
 ! D3    D(30,1,2,3)          -169.082          estimate D2E/DX2                !
 ! D4    D(30,1,2,32)           36.9682         estimate D2E/DX2                !
 ! D5    D(31,1,2,3)            71.3562         estimate D2E/DX2                !
 ! D6    D(31,1,2,32)          -82.5936         estimate D2E/DX2                !
 ! D7    D(1,2,3,4)             10.083          estimate D2E/DX2                !
 ! D8    D(1,2,3,5)           -177.7151         estimate D2E/DX2                !
 ! D9    D(32,2,3,4)           163.5727         estimate D2E/DX2                !
 ! D10   D(32,2,3,5)           -24.2253         estimate D2E/DX2                !
 ! D11   D(2,3,5,6)            -83.4116         estimate D2E/DX2                !
 ! D12   D(2,3,5,7)             32.7116         estimate D2E/DX2                !
 ! D13   D(2,3,5,25)           163.2834         estimate D2E/DX2                !
 ! D14   D(4,3,5,6)             88.7853         estimate D2E/DX2                !
 ! D15   D(4,3,5,7)           -155.0914         estimate D2E/DX2                !
 ! D16   D(4,3,5,25)           -24.5196         estimate D2E/DX2                !
 ! D17   D(3,5,6,33)          -175.2122         estimate D2E/DX2                !
 ! D18   D(3,5,6,34)           -55.7668         estimate D2E/DX2                !
 ! D19   D(3,5,6,35)            63.8345         estimate D2E/DX2                !
 ! D20   D(7,5,6,33)            61.0465         estimate D2E/DX2                !
 ! D21   D(7,5,6,34)          -179.5081         estimate D2E/DX2                !
 ! D22   D(7,5,6,35)           -59.9068         estimate D2E/DX2                !
 ! D23   D(25,5,6,33)          -59.994          estimate D2E/DX2                !
 ! D24   D(25,5,6,34)           59.4514         estimate D2E/DX2                !
 ! D25   D(25,5,6,35)          179.0527         estimate D2E/DX2                !
 ! D26   D(3,5,7,8)             57.8126         estimate D2E/DX2                !
 ! D27   D(3,5,7,36)          -179.2488         estimate D2E/DX2                !
 ! D28   D(3,5,7,37)           -65.2687         estimate D2E/DX2                !
 ! D29   D(6,5,7,8)            173.2766         estimate D2E/DX2                !
 ! D30   D(6,5,7,36)           -63.7847         estimate D2E/DX2                !
 ! D31   D(6,5,7,37)            50.1953         estimate D2E/DX2                !
 ! D32   D(25,5,7,8)           -70.5698         estimate D2E/DX2                !
 ! D33   D(25,5,7,36)           52.3688         estimate D2E/DX2                !
 ! D34   D(25,5,7,37)          166.3489         estimate D2E/DX2                !
 ! D35   D(3,5,25,26)          -61.5613         estimate D2E/DX2                !
 ! D36   D(3,5,25,61)           83.5629         estimate D2E/DX2                !
 ! D37   D(6,5,25,26)         -173.5774         estimate D2E/DX2                !
 ! D38   D(6,5,25,61)          -28.4532         estimate D2E/DX2                !
 ! D39   D(7,5,25,26)           70.7206         estimate D2E/DX2                !
 ! D40   D(7,5,25,61)         -144.1552         estimate D2E/DX2                !
 ! D41   D(5,7,8,9)           -165.0391         estimate D2E/DX2                !
 ! D42   D(5,7,8,38)            75.8149         estimate D2E/DX2                !
 ! D43   D(5,7,8,39)           -43.4306         estimate D2E/DX2                !
 ! D44   D(36,7,8,9)            71.4795         estimate D2E/DX2                !
 ! D45   D(36,7,8,38)          -47.6666         estimate D2E/DX2                !
 ! D46   D(36,7,8,39)         -166.912          estimate D2E/DX2                !
 ! D47   D(37,7,8,9)           -41.6195         estimate D2E/DX2                !
 ! D48   D(37,7,8,38)         -160.7656         estimate D2E/DX2                !
 ! D49   D(37,7,8,39)           79.989          estimate D2E/DX2                !
 ! D50   D(7,8,9,10)          -179.5555         estimate D2E/DX2                !
 ! D51   D(7,8,9,40)            60.9775         estimate D2E/DX2                !
 ! D52   D(7,8,9,41)           -55.3065         estimate D2E/DX2                !
 ! D53   D(38,8,9,10)          -59.494          estimate D2E/DX2                !
 ! D54   D(38,8,9,40)         -178.961          estimate D2E/DX2                !
 ! D55   D(38,8,9,41)           64.755          estimate D2E/DX2                !
 ! D56   D(39,8,9,10)           57.9803         estimate D2E/DX2                !
 ! D57   D(39,8,9,40)          -61.4867         estimate D2E/DX2                !
 ! D58   D(39,8,9,41)         -177.7708         estimate D2E/DX2                !
 ! D59   D(8,9,10,11)          111.2302         estimate D2E/DX2                !
 ! D60   D(8,9,10,42)          -69.4987         estimate D2E/DX2                !
 ! D61   D(40,9,10,11)        -128.2722         estimate D2E/DX2                !
 ! D62   D(40,9,10,42)          50.9988         estimate D2E/DX2                !
 ! D63   D(41,9,10,11)         -11.9971         estimate D2E/DX2                !
 ! D64   D(41,9,10,42)         167.2739         estimate D2E/DX2                !
 ! D65   D(9,10,11,12)          -2.8395         estimate D2E/DX2                !
 ! D66   D(9,10,11,43)         179.3936         estimate D2E/DX2                !
 ! D67   D(42,10,11,12)        177.9038         estimate D2E/DX2                !
 ! D68   D(42,10,11,43)          0.1369         estimate D2E/DX2                !
 ! D69   D(10,11,12,13)         97.9866         estimate D2E/DX2                !
 ! D70   D(10,11,12,44)       -139.8763         estimate D2E/DX2                !
 ! D71   D(10,11,12,45)        -24.6552         estimate D2E/DX2                !
 ! D72   D(43,11,12,13)        -84.2069         estimate D2E/DX2                !
 ! D73   D(43,11,12,44)         37.9302         estimate D2E/DX2                !
 ! D74   D(43,11,12,45)        153.1513         estimate D2E/DX2                !
 ! D75   D(11,12,13,14)         65.2906         estimate D2E/DX2                !
 ! D76   D(11,12,13,46)        -57.8571         estimate D2E/DX2                !
 ! D77   D(11,12,13,47)       -173.6758         estimate D2E/DX2                !
 ! D78   D(44,12,13,14)        -56.1116         estimate D2E/DX2                !
 ! D79   D(44,12,13,46)       -179.2593         estimate D2E/DX2                !
 ! D80   D(44,12,13,47)         64.922          estimate D2E/DX2                !
 ! D81   D(45,12,13,14)       -171.1505         estimate D2E/DX2                !
 ! D82   D(45,12,13,46)         65.7018         estimate D2E/DX2                !
 ! D83   D(45,12,13,47)        -50.1169         estimate D2E/DX2                !
 ! D84   D(12,13,14,15)        179.9404         estimate D2E/DX2                !
 ! D85   D(12,13,14,48)        -58.0641         estimate D2E/DX2                !
 ! D86   D(12,13,14,49)         57.0592         estimate D2E/DX2                !
 ! D87   D(46,13,14,15)        -57.3271         estimate D2E/DX2                !
 ! D88   D(46,13,14,48)         64.6684         estimate D2E/DX2                !
 ! D89   D(46,13,14,49)        179.7917         estimate D2E/DX2                !
 ! D90   D(47,13,14,15)         59.9275         estimate D2E/DX2                !
 ! D91   D(47,13,14,48)       -178.0771         estimate D2E/DX2                !
 ! D92   D(47,13,14,49)        -62.9537         estimate D2E/DX2                !
 ! D93   D(13,14,15,16)        -61.2135         estimate D2E/DX2                !
 ! D94   D(13,14,15,17)         62.9422         estimate D2E/DX2                !
 ! D95   D(13,14,15,21)        176.6344         estimate D2E/DX2                !
 ! D96   D(48,14,15,16)        176.5252         estimate D2E/DX2                !
 ! D97   D(48,14,15,17)        -59.3191         estimate D2E/DX2                !
 ! D98   D(48,14,15,21)         54.3731         estimate D2E/DX2                !
 ! D99   D(49,14,15,16)         61.1763         estimate D2E/DX2                !
 ! D100  D(49,14,15,17)       -174.668          estimate D2E/DX2                !
 ! D101  D(49,14,15,21)        -60.9758         estimate D2E/DX2                !
 ! D102  D(14,15,16,50)         80.1428         estimate D2E/DX2                !
 ! D103  D(14,15,16,51)        -39.9949         estimate D2E/DX2                !
 ! D104  D(14,15,16,52)       -158.9497         estimate D2E/DX2                !
 ! D105  D(17,15,16,50)        -41.5102         estimate D2E/DX2                !
 ! D106  D(17,15,16,51)       -161.648          estimate D2E/DX2                !
 ! D107  D(17,15,16,52)         79.3973         estimate D2E/DX2                !
 ! D108  D(21,15,16,50)       -161.3812         estimate D2E/DX2                !
 ! D109  D(21,15,16,51)         78.4811         estimate D2E/DX2                !
 ! D110  D(21,15,16,52)        -40.4736         estimate D2E/DX2                !
 ! D111  D(14,15,17,18)       -168.4828         estimate D2E/DX2                !
 ! D112  D(14,15,17,53)         49.4403         estimate D2E/DX2                !
 ! D113  D(16,15,17,18)        -45.938          estimate D2E/DX2                !
 ! D114  D(16,15,17,53)        171.9851         estimate D2E/DX2                !
 ! D115  D(21,15,17,18)         77.5849         estimate D2E/DX2                !
 ! D116  D(21,15,17,53)        -64.4921         estimate D2E/DX2                !
 ! D117  D(14,15,21,22)        -95.7863         estimate D2E/DX2                !
 ! D118  D(14,15,21,23)         77.8155         estimate D2E/DX2                !
 ! D119  D(16,15,21,22)        143.4961         estimate D2E/DX2                !
 ! D120  D(16,15,21,23)        -42.9021         estimate D2E/DX2                !
 ! D121  D(17,15,21,22)         19.6978         estimate D2E/DX2                !
 ! D122  D(17,15,21,23)       -166.7004         estimate D2E/DX2                !
 ! D123  D(15,17,18,19)       -168.4481         estimate D2E/DX2                !
 ! D124  D(15,17,18,20)         11.2334         estimate D2E/DX2                !
 ! D125  D(53,17,18,19)        -26.4252         estimate D2E/DX2                !
 ! D126  D(53,17,18,20)        153.2563         estimate D2E/DX2                !
 ! D127  D(17,18,19,54)        100.6186         estimate D2E/DX2                !
 ! D128  D(17,18,19,55)       -139.4062         estimate D2E/DX2                !
 ! D129  D(17,18,19,56)        -20.0728         estimate D2E/DX2                !
 ! D130  D(20,18,19,54)        -79.0744         estimate D2E/DX2                !
 ! D131  D(20,18,19,55)         40.9007         estimate D2E/DX2                !
 ! D132  D(20,18,19,56)        160.2341         estimate D2E/DX2                !
 ! D133  D(15,21,23,24)        177.5714         estimate D2E/DX2                !
 ! D134  D(15,21,23,57)         21.3735         estimate D2E/DX2                !
 ! D135  D(22,21,23,24)         -8.833          estimate D2E/DX2                !
 ! D136  D(22,21,23,57)       -165.0309         estimate D2E/DX2                !
 ! D137  D(21,23,24,58)        -72.8825         estimate D2E/DX2                !
 ! D138  D(21,23,24,59)         47.1444         estimate D2E/DX2                !
 ! D139  D(21,23,24,60)        167.6237         estimate D2E/DX2                !
 ! D140  D(57,23,24,58)         83.6574         estimate D2E/DX2                !
 ! D141  D(57,23,24,59)       -156.3157         estimate D2E/DX2                !
 ! D142  D(57,23,24,60)        -35.8364         estimate D2E/DX2                !
 ! D143  D(5,25,26,27)         173.2839         estimate D2E/DX2                !
 ! D144  D(5,25,26,28)          -4.8929         estimate D2E/DX2                !
 ! D145  D(61,25,26,27)         27.6877         estimate D2E/DX2                !
 ! D146  D(61,25,26,28)       -150.4892         estimate D2E/DX2                !
 ! D147  D(25,26,27,62)         21.9275         estimate D2E/DX2                !
 ! D148  D(25,26,27,63)        -98.8128         estimate D2E/DX2                !
 ! D149  D(25,26,27,64)        141.1658         estimate D2E/DX2                !
 ! D150  D(28,26,27,62)       -159.8243         estimate D2E/DX2                !
 ! D151  D(28,26,27,63)         79.4355         estimate D2E/DX2                !
 ! D152  D(28,26,27,64)        -40.5859         estimate D2E/DX2                !
 --------------------------------------------------------------------------------
 Trust Radius=3.00D-01 FncErr=1.00D-07 GrdErr=1.00D-07
 Number of steps in this run= 339 maximum allowed number of steps= 384.
 GradGradGradGradGradGradGradGradGradGradGradGradGradGradGradGradGradGrad

 Stoichiometry    C20H36N4O4
 Framework group  C1[X(C20H36N4O4)]
 Deg. of freedom   186
 Full point group                 C1      NOp   1
 Largest Abelian subgroup         C1      NOp   1
 Largest concise Abelian subgroup C1      NOp   1
                         Standard orientation:                         
 ---------------------------------------------------------------------
 Center     Atomic      Atomic             Coordinates (Angstroms)
 Number     Number       Type             X           Y           Z
 ---------------------------------------------------------------------
      1          6           0       -5.806394    2.441166    2.423604
      2          7           0       -5.241149    1.995578    1.173684
      3          6           0       -5.822795    0.943464    0.490345
      4          8           0       -6.919855    0.486891    0.820862
      5          6           0       -5.109947    0.492615   -0.827902
      6          6           0       -5.645583    1.469421   -1.909270
      7          6           0       -3.562004    0.630045   -0.871469
      8          6           0       -2.732679   -0.095215    0.191077
      9          6           0       -1.295029    0.436759    0.225354
     10          6           0       -0.470722   -0.276700    1.257975
     11          6           0        0.548651   -1.123337    1.037546
     12          6           0        1.058113   -1.594930   -0.295078
     13          6           0        2.284368   -0.816730   -0.785214
     14          6           0        3.523031   -1.019839    0.103299
     15          6           0        4.783293   -0.243495   -0.370281
     16          6           0        5.198739   -0.711428   -1.774784
     17          7           0        4.495976    1.206227   -0.308324
     18          6           0        5.314611    2.160192   -0.873724
     19          6           0        4.976176    3.567213   -0.454129
     20          8           0        6.239795    1.923514   -1.641144
     21          6           0        5.893472   -0.509357    0.701358
     22          8           0        6.104858    0.279527    1.625143
     23          7           0        6.525288   -1.736333    0.632582
     24          6           0        7.597297   -2.054099    1.543056
     25          7           0       -5.596964   -0.851955   -1.204087
     26          6           0       -5.432416   -1.969082   -0.412698
     27          6           0       -6.152775   -3.183416   -0.937053
     28          8           0       -4.800849   -2.001331    0.635837
     29          1           0       -6.886328    2.580287    2.321047
     30          1           0       -5.334925    3.386857    2.701371
     31          1           0       -5.606690    1.687479    3.189616
     32          1           0       -4.255996    2.169005    1.037184
     33          1           0       -5.277488    1.197882   -2.905787
     34          1           0       -6.742058    1.453051   -1.952211
     35          1           0       -5.346883    2.503923   -1.704583
     36          1           0       -3.207978    0.290645   -1.855029
     37          1           0       -3.307391    1.697708   -0.822749
     38          1           0       -2.691956   -1.163451   -0.043461
     39          1           0       -3.185171    0.020595    1.182707
     40          1           0       -1.301912    1.503991    0.476946
     41          1           0       -0.846963    0.361960   -0.771616
     42          1           0       -0.734961   -0.064208    2.293791
     43          1           0        1.047920   -1.547967    1.907349
     44          1           0        1.302704   -2.661039   -0.215770
     45          1           0        0.270117   -1.531299   -1.053517
     46          1           0        2.036852    0.249433   -0.849507
     47          1           0        2.506782   -1.154355   -1.803748
     48          1           0        3.285127   -0.712546    1.130380
     49          1           0        3.748283   -2.093617    0.155090
     50          1           0        4.586407   -0.241660   -2.552558
     51          1           0        5.093230   -1.796990   -1.883768
     52          1           0        6.247655   -0.481152   -1.989313
     53          1           0        4.099081    1.494919    0.578821
     54          1           0        5.674953    3.887138    0.323562
     55          1           0        5.058283    4.229162   -1.320748
     56          1           0        3.954100    3.634170   -0.069947
     57          1           0        6.500280   -2.243064   -0.241464
     58          1           0        8.484289   -1.483965    1.253516
     59          1           0        7.313723   -1.793316    2.566137
     60          1           0        7.805259   -3.123640    1.475243
     61          1           0       -6.467540   -0.856208   -1.721086
     62          1           0       -6.352945   -3.096660   -2.009096
     63          1           0       -7.098333   -3.298646   -0.402365
     64          1           0       -5.527627   -4.067325   -0.779067
 ---------------------------------------------------------------------
 Rotational constants (GHZ):      0.3219588      0.0476311      0.0453555
 Standard basis: 6-31G(d) (6D, 7F)
 There are   492 symmetry adapted basis functions of A   symmetry.
 Integral buffers will be    131072 words long.
 Raffenetti 1 integral format.
 Two-electron integral symmetry is turned on.
   492 basis functions,   928 primitive gaussians,   492 cartesian basis functions
   108 alpha electrons      108 beta electrons
       nuclear repulsion energy      2623.9921495252 Hartrees.
 NAtoms=   64 NActive=   64 NUniq=   64 SFac= 7.50D-01 NAtFMM=   80 NAOKFM=F Big=T
 One-electron integrals computed using PRISM.
 NBasis=   492 RedAO= T  NBF=   492
 NBsUse=   492 1.00D-06 NBFU=   492
 Harris functional with IExCor=  205 diagonalized for initial guess.
 ExpMin= 1.61D-01 ExpMax= 5.48D+03 ExpMxC= 8.25D+02 IAcc=1 IRadAn=         1 AccDes= 0.00D+00
 HarFok:  IExCor=  205 AccDes= 0.00D+00 IRadAn=         1 IDoV= 1
 ScaDFX=  1.000000  1.000000  1.000000  1.000000
 FoFCou: FMM=F IPFlag=           0 FMFlag=      100000 FMFlg1=           1
         NFxFlg=           0 DoJE=T BraDBF=F KetDBF=T FulRan=T
         Omega=  0.000000  0.000000  1.000000  0.000000  0.000000 ICntrl=     500 IOpCl=  0
         NMat0=    1 NMatS0=    1 NMatT0=    0 NMatD0=    1 NMtDS0=    0 NMtDT0=    0
         I1Cent=           4 NGrid=           0.
 Petite list used in FoFCou.
 Initial guess orbital symmetries:
       Occupied  (A) (A) (A) (A) (A) (A) (A) (A) (A) (A) (A) (A)
                 (A) (A) (A) (A) (A) (A) (A) (A) (A) (A) (A) (A)
                 (A) (A) (A) (A) (A) (A) (A) (A) (A) (A) (A) (A)
                 (A) (A) (A) (A) (A) (A) (A) (A) (A) (A) (A) (A)
                 (A) (A) (A) (A) (A) (A) (A) (A) (A) (A) (A) (A)
                 (A) (A) (A) (A) (A) (A) (A) (A) (A) (A) (A) (A)
                 (A) (A) (A) (A) (A) (A) (A) (A) (A) (A) (A) (A)
                 (A) (A) (A) (A) (A) (A) (A) (A) (A) (A) (A) (A)
                 (A) (A) (A) (A) (A) (A) (A) (A) (A) (A) (A) (A)
       Virtual   (A) (A) (A) (A) (A) (A) (A) (A) (A) (A) (A) (A)
                 (A) (A) (A) (A) (A) (A) (A) (A) (A) (A) (A) (A)
                 (A) (A) (A) (A) (A) (A) (A) (A) (A) (A) (A) (A)
                 (A) (A) (A) (A) (A) (A) (A) (A) (A) (A) (A) (A)
                 (A) (A) (A) (A) (A) (A) (A) (A) (A) (A) (A) (A)
                 (A) (A) (A) (A) (A) (A) (A) (A) (A) (A) (A) (A)
                 (A) (A) (A) (A) (A) (A) (A) (A) (A) (A) (A) (A)
                 (A) (A) (A) (A) (A) (A) (A) (A) (A) (A) (A) (A)
                 (A) (A) (A) (A) (A) (A) (A) (A) (A) (A) (A) (A)
                 (A) (A) (A) (A) (A) (A) (A) (A) (A) (A) (A) (A)
                 (A) (A) (A) (A) (A) (A) (A) (A) (A) (A) (A) (A)
                 (A) (A) (A) (A) (A) (A) (A) (A) (A) (A) (A) (A)
                 (A) (A) (A) (A) (A) (A) (A) (A) (A) (A) (A) (A)
                 (A) (A) (A) (A) (A) (A) (A) (A) (A) (A) (A) (A)
                 (A) (A) (A) (A) (A) (A) (A) (A) (A) (A) (A) (A)
                 (A) (A) (A) (A) (A) (A) (A) (A) (A) (A) (A) (A)
                 (A) (A) (A) (A) (A) (A) (A) (A) (A) (A) (A) (A)
                 (A) (A) (A) (A) (A) (A) (A) (A) (A) (A) (A) (A)
                 (A) (A) (A) (A) (A) (A) (A) (A) (A) (A) (A) (A)
                 (A) (A) (A) (A) (A) (A) (A) (A) (A) (A) (A) (A)
                 (A) (A) (A) (A) (A) (A) (A) (A) (A) (A) (A) (A)
                 (A) (A) (A) (A) (A) (A) (A) (A) (A) (A) (A) (A)
                 (A) (A) (A) (A) (A) (A) (A) (A) (A) (A) (A) (A)
                 (A) (A) (A) (A) (A) (A) (A) (A) (A) (A) (A) (A)
                 (A) (A) (A) (A) (A) (A) (A) (A) (A) (A) (A) (A)
                 (A) (A) (A) (A) (A) (A) (A) (A) (A) (A) (A) (A)
                 (A) (A) (A) (A) (A) (A) (A) (A) (A) (A) (A) (A)
                 (A) (A) (A) (A) (A) (A) (A) (A) (A) (A) (A) (A)
                 (A) (A) (A) (A) (A) (A) (A) (A) (A) (A) (A) (A)
                 (A) (A) (A) (A) (A) (A) (A) (A) (A) (A) (A) (A)
                 (A) (A) (A) (A) (A) (A) (A) (A) (A) (A) (A) (A)
                 (A) (A) (A) (A) (A) (A) (A) (A) (A) (A) (A) (A)
 The electronic state of the initial guess is 1-A.
 Requested convergence on RMS density matrix=1.00D-08 within 128 cycles.
 Requested convergence on MAX density matrix=1.00D-06.
 Requested convergence on             energy=1.00D-06.
 No special actions if energy rises.
 Integral accuracy reduced to 1.0D-05 until final iterations.
 Initial convergence to 1.0D-05 achieved.  Increase integral accuracy.
 SCF Done:  E(RHF) =  -1295.59612081     A.U. after   14 cycles
             Convg  =    0.7439D-08             -V/T =  2.0024

 **********************************************************************

            Population analysis using the SCF density.

 **********************************************************************

 Orbital symmetries:
 BldTbl:  Degeneracy threshold= 1.00D-02
       Occupied  (A) (A) (A) (A) (A) (A) (A) (A) (A) (A) (A) (A)
                 (A) (A) (A) (A) (A) (A) (A) (A) (A) (A) (A) (A)
                 (A) (A) (A) (A) (A) (A) (A) (A) (A) (A) (A) (A)
                 (A) (A) (A) (A) (A) (A) (A) (A) (A) (A) (A) (A)
                 (A) (A) (A) (A) (A) (A) (A) (A) (A) (A) (A) (A)
                 (A) (A) (A) (A) (A) (A) (A) (A) (A) (A) (A) (A)
                 (A) (A) (A) (A) (A) (A) (A) (A) (A) (A) (A) (A)
                 (A) (A) (A) (A) (A) (A) (A) (A) (A) (A) (A) (A)
                 (A) (A) (A) (A) (A) (A) (A) (A) (A) (A) (A) (A)
       Virtual   (A) (A) (A) (A) (A) (A) (A) (A) (A) (A) (A) (A)
                 (A) (A) (A) (A) (A) (A) (A) (A) (A) (A) (A) (A)
                 (A) (A) (A) (A) (A) (A) (A) (A) (A) (A) (A) (A)
                 (A) (A) (A) (A) (A) (A) (A) (A) (A) (A) (A) (A)
                 (A) (A) (A) (A) (A) (A) (A) (A) (A) (A) (A) (A)
                 (A) (A) (A) (A) (A) (A) (A) (A) (A) (A) (A) (A)
                 (A) (A) (A) (A) (A) (A) (A) (A) (A) (A) (A) (A)
                 (A) (A) (A) (A) (A) (A) (A) (A) (A) (A) (A) (A)
                 (A) (A) (A) (A) (A) (A) (A) (A) (A) (A) (A) (A)
                 (A) (A) (A) (A) (A) (A) (A) (A) (A) (A) (A) (A)
                 (A) (A) (A) (A) (A) (A) (A) (A) (A) (A) (A) (A)
                 (A) (A) (A) (A) (A) (A) (A) (A) (A) (A) (A) (A)
                 (A) (A) (A) (A) (A) (A) (A) (A) (A) (A) (A) (A)
                 (A) (A) (A) (A) (A) (A) (A) (A) (A) (A) (A) (A)
                 (A) (A) (A) (A) (A) (A) (A) (A) (A) (A) (A) (A)
                 (A) (A) (A) (A) (A) (A) (A) (A) (A) (A) (A) (A)
                 (A) (A) (A) (A) (A) (A) (A) (A) (A) (A) (A) (A)
                 (A) (A) (A) (A) (A) (A) (A) (A) (A) (A) (A) (A)
                 (A) (A) (A) (A) (A) (A) (A) (A) (A) (A) (A) (A)
                 (A) (A) (A) (A) (A) (A) (A) (A) (A) (A) (A) (A)
                 (A) (A) (A) (A) (A) (A) (A) (A) (A) (A) (A) (A)
                 (A) (A) (A) (A) (A) (A) (A) (A) (A) (A) (A) (A)
                 (A) (A) (A) (A) (A) (A) (A) (A) (A) (A) (A) (A)
                 (A) (A) (A) (A) (A) (A) (A) (A) (A) (A) (A) (A)
                 (A) (A) (A) (A) (A) (A) (A) (A) (A) (A) (A) (A)
                 (A) (A) (A) (A) (A) (A) (A) (A) (A) (A) (A) (A)
                 (A) (A) (A) (A) (A) (A) (A) (A) (A) (A) (A) (A)
                 (A) (A) (A) (A) (A) (A) (A) (A) (A) (A) (A) (A)
                 (A) (A) (A) (A) (A) (A) (A) (A) (A) (A) (A) (A)
                 (A) (A) (A) (A) (A) (A) (A) (A) (A) (A) (A) (A)
                 (A) (A) (A) (A) (A) (A) (A) (A) (A) (A) (A) (A)
                 (A) (A) (A) (A) (A) (A) (A) (A) (A) (A) (A) (A)
 The electronic state is 1-A.
 Alpha  occ. eigenvalues --  -20.52894 -20.52678 -20.52514 -20.52127 -15.58872
 Alpha  occ. eigenvalues --  -15.58851 -15.58831 -15.58250 -11.35472 -11.35221
 Alpha  occ. eigenvalues --  -11.35212 -11.34935 -11.30258 -11.29688 -11.25813
 Alpha  occ. eigenvalues --  -11.25776 -11.24107 -11.24043 -11.23899 -11.23322
 Alpha  occ. eigenvalues --  -11.23014 -11.22822 -11.22774 -11.22759 -11.22730
 Alpha  occ. eigenvalues --  -11.22688 -11.22477 -11.21734  -1.37820  -1.37722
 Alpha  occ. eigenvalues --   -1.36682  -1.36648  -1.23238  -1.22832  -1.22448
 Alpha  occ. eigenvalues --   -1.22444  -1.10836  -1.09366  -1.07336  -1.04481
 Alpha  occ. eigenvalues --   -1.00665  -0.99081  -0.98606  -0.95179  -0.94921
 Alpha  occ. eigenvalues --   -0.94529  -0.91631  -0.86918  -0.85440  -0.82024
 Alpha  occ. eigenvalues --   -0.80235  -0.79347  -0.79013  -0.76317  -0.75492
 Alpha  occ. eigenvalues --   -0.72434  -0.71492  -0.71002  -0.67740  -0.67062
 Alpha  occ. eigenvalues --   -0.66293  -0.65397  -0.64998  -0.63336  -0.63188
 Alpha  occ. eigenvalues --   -0.62647  -0.62132  -0.61833  -0.61483  -0.61130
 Alpha  occ. eigenvalues --   -0.60488  -0.59524  -0.58854  -0.58651  -0.58339
 Alpha  occ. eigenvalues --   -0.57749  -0.57023  -0.56263  -0.55937  -0.55592
 Alpha  occ. eigenvalues --   -0.55446  -0.55008  -0.54575  -0.54260  -0.53600
 Alpha  occ. eigenvalues --   -0.53541  -0.52745  -0.52572  -0.52213  -0.50919
 Alpha  occ. eigenvalues --   -0.50282  -0.49936  -0.49815  -0.48718  -0.48396
 Alpha  occ. eigenvalues --   -0.48035  -0.47280  -0.46519  -0.44809  -0.42240
 Alpha  occ. eigenvalues --   -0.41935  -0.41402  -0.41074  -0.39243  -0.38941
 Alpha  occ. eigenvalues --   -0.38678  -0.38413  -0.34000
 Alpha virt. eigenvalues --    0.17022   0.18263   0.18861   0.19479   0.19543
 Alpha virt. eigenvalues --    0.19853   0.20999   0.22166   0.23202   0.23582
 Alpha virt. eigenvalues --    0.24542   0.25400   0.25822   0.26388   0.26906
 Alpha virt. eigenvalues --    0.27473   0.27648   0.28311   0.28862   0.29323
 Alpha virt. eigenvalues --    0.29837   0.30413   0.30559   0.30838   0.30923
 Alpha virt. eigenvalues --    0.31198   0.31529   0.32061   0.32163   0.32596
 Alpha virt. eigenvalues --    0.33253   0.33666   0.33976   0.34128   0.34224
 Alpha virt. eigenvalues --    0.34443   0.34920   0.35406   0.35619   0.36372
 Alpha virt. eigenvalues --    0.37206   0.37995   0.38429   0.38786   0.39372
 Alpha virt. eigenvalues --    0.40278   0.40499   0.41617   0.41824   0.42762
 Alpha virt. eigenvalues --    0.43023   0.43490   0.45021   0.45559   0.46407
 Alpha virt. eigenvalues --    0.47500   0.47945   0.48646   0.51161   0.51832
 Alpha virt. eigenvalues --    0.54115   0.55340   0.55734   0.59536   0.60276
 Alpha virt. eigenvalues --    0.60904   0.61493   0.63232   0.69620   0.70013
 Alpha virt. eigenvalues --    0.70738   0.72033   0.72490   0.72814   0.73671
 Alpha virt. eigenvalues --    0.74122   0.74165   0.74685   0.76064   0.76229
 Alpha virt. eigenvalues --    0.76869   0.77015   0.77159   0.77607   0.78950
 Alpha virt. eigenvalues --    0.79501   0.80373   0.80753   0.81454   0.82348
 Alpha virt. eigenvalues --    0.82774   0.83395   0.84431   0.84983   0.85785
 Alpha virt. eigenvalues --    0.86606   0.87526   0.87894   0.89420   0.89725
 Alpha virt. eigenvalues --    0.90935   0.91346   0.92518   0.93099   0.93557
 Alpha virt. eigenvalues --    0.94088   0.95485   0.95865   0.96335   0.96989
 Alpha virt. eigenvalues --    0.97670   0.98486   0.98662   0.99383   0.99502
 Alpha virt. eigenvalues --    1.00159   1.00338   1.01395   1.02564   1.02989
 Alpha virt. eigenvalues --    1.04045   1.04445   1.05501   1.06195   1.07309
 Alpha virt. eigenvalues --    1.07503   1.07938   1.08974   1.09636   1.10072
 Alpha virt. eigenvalues --    1.11144   1.11347   1.12666   1.12895   1.13164
 Alpha virt. eigenvalues --    1.13328   1.13692   1.13974   1.14429   1.14886
 Alpha virt. eigenvalues --    1.15162   1.15413   1.15676   1.15935   1.16538
 Alpha virt. eigenvalues --    1.17036   1.17265   1.18099   1.18610   1.18705
 Alpha virt. eigenvalues --    1.18999   1.19101   1.19685   1.19965   1.20633
 Alpha virt. eigenvalues --    1.20713   1.20949   1.21312   1.21670   1.22127
 Alpha virt. eigenvalues --    1.22163   1.23016   1.23219   1.24350   1.24527
 Alpha virt. eigenvalues --    1.25124   1.25450   1.26419   1.27427   1.27534
 Alpha virt. eigenvalues --    1.28185   1.28450   1.28944   1.29976   1.30905
 Alpha virt. eigenvalues --    1.31366   1.32203   1.33409   1.34625   1.35215
 Alpha virt. eigenvalues --    1.36898   1.37361   1.39562   1.40795   1.41877
 Alpha virt. eigenvalues --    1.42907   1.43444   1.43757   1.44660   1.46786
 Alpha virt. eigenvalues --    1.47432   1.49916   1.51375   1.53137   1.53328
 Alpha virt. eigenvalues --    1.55381   1.55989   1.56712   1.58544   1.60537
 Alpha virt. eigenvalues --    1.62094   1.64710   1.66461   1.68104   1.68964
 Alpha virt. eigenvalues --    1.70639   1.71204   1.71654   1.72379   1.73324
 Alpha virt. eigenvalues --    1.74712   1.75403   1.78025   1.79082   1.79172
 Alpha virt. eigenvalues --    1.80286   1.81818   1.83513   1.84125   1.86192
 Alpha virt. eigenvalues --    1.88638   1.89296   1.91561   1.92354   1.93937
 Alpha virt. eigenvalues --    1.95999   1.96735   1.97707   1.98867   1.99884
 Alpha virt. eigenvalues --    2.02249   2.02905   2.03885   2.05905   2.06873
 Alpha virt. eigenvalues --    2.07327   2.08132   2.09599   2.09830   2.10169
 Alpha virt. eigenvalues --    2.12231   2.12765   2.13791   2.14161   2.14314
 Alpha virt. eigenvalues --    2.15979   2.16443   2.17022   2.17811   2.18741
 Alpha virt. eigenvalues --    2.19179   2.19859   2.19930   2.21036   2.21315
 Alpha virt. eigenvalues --    2.23352   2.24026   2.24796   2.25446   2.25903
 Alpha virt. eigenvalues --    2.27497   2.28074   2.28178   2.28778   2.30111
 Alpha virt. eigenvalues --    2.30834   2.31637   2.32288   2.32536   2.34039
 Alpha virt. eigenvalues --    2.34255   2.34932   2.35992   2.36491   2.38005
 Alpha virt. eigenvalues --    2.38576   2.39198   2.40755   2.41443   2.42221
 Alpha virt. eigenvalues --    2.44107   2.44698   2.45948   2.46627   2.49173
 Alpha virt. eigenvalues --    2.50028   2.51353   2.53035   2.53351   2.53834
 Alpha virt. eigenvalues --    2.54538   2.56114   2.56907   2.57723   2.58816
 Alpha virt. eigenvalues --    2.59465   2.61112   2.61221   2.61578   2.62486
 Alpha virt. eigenvalues --    2.63720   2.65819   2.66134   2.66954   2.68556
 Alpha virt. eigenvalues --    2.69166   2.71572   2.72011   2.72728   2.73100
 Alpha virt. eigenvalues --    2.73796   2.74815   2.75887   2.77308   2.78784
 Alpha virt. eigenvalues --    2.79776   2.80102   2.81169   2.82393   2.84588
 Alpha virt. eigenvalues --    2.86833   2.88351   2.90532   2.91468   2.92841
 Alpha virt. eigenvalues --    2.94544   2.95260   2.95970   2.98134   2.98772
 Alpha virt. eigenvalues --    2.99696   3.01221   3.03481   3.04593   3.06676
 Alpha virt. eigenvalues --    3.07593   3.10337   3.11725   3.13896   3.14069
 Alpha virt. eigenvalues --    3.18000   3.18604   3.20378   3.25867   3.25952
 Alpha virt. eigenvalues --    3.29664   3.30625   3.37442   3.38254   3.39179
 Alpha virt. eigenvalues --    3.39973   3.40960   3.48043   3.48423   3.54032
 Alpha virt. eigenvalues --    3.54172   4.33873   4.34298   4.46900   4.47539
 Alpha virt. eigenvalues --    4.49123   4.49972   4.54207   4.56784   4.58060
 Alpha virt. eigenvalues --    4.61242   4.62870   4.64252   4.65697   4.69674
 Alpha virt. eigenvalues --    4.70063   4.72545   4.74467   4.78929   4.82447
 Alpha virt. eigenvalues --    4.86255   4.87354   4.93339   4.93862   4.94597
 Alpha virt. eigenvalues --    4.96415   5.00797   5.18245   5.18701
          Condensed to atoms (all electrons):
 Mulliken atomic charges:
              1
     1  C   -0.278317
     2  N   -0.797223
     3  C    0.809729
     4  O   -0.642661
     5  C    0.100270
     6  C   -0.504915
     7  C   -0.320523
     8  C   -0.300707
     9  C   -0.356913
    10  C   -0.156431
    11  C   -0.182159
    12  C   -0.351720
    13  C   -0.302038
    14  C   -0.324956
    15  C    0.103330
    16  C   -0.513140
    17  N   -0.789024
    18  C    0.773496
    19  C   -0.586355
    20  O   -0.623794
    21  C    0.794816
    22  O   -0.645000
    23  N   -0.795688
    24  C   -0.276612
    25  N   -0.798098
    26  C    0.777419
    27  C   -0.588821
    28  O   -0.615013
    29  H    0.207089
    30  H    0.165184
    31  H    0.179535
    32  H    0.390457
    33  H    0.183517
    34  H    0.185828
    35  H    0.187564
    36  H    0.183443
    37  H    0.149515
    38  H    0.200165
    39  H    0.174064
    40  H    0.148757
    41  H    0.166100
    42  H    0.178103
    43  H    0.177701
    44  H    0.165429
    45  H    0.173958
    46  H    0.179257
    47  H    0.162308
    48  H    0.181822
    49  H    0.175161
    50  H    0.198663
    51  H    0.145169
    52  H    0.220761
    53  H    0.392808
    54  H    0.213384
    55  H    0.206571
    56  H    0.171751
    57  H    0.391462
    58  H    0.177002
    59  H    0.206991
    60  H    0.166648
    61  H    0.390436
    62  H    0.172081
    63  H    0.213806
    64  H    0.208554
 Sum of Mulliken atomic charges =   0.00000
 Mulliken charges with hydrogens summed into heavy atoms:
              1
     1  C    0.273490
     2  N   -0.406766
     3  C    0.809729
     4  O   -0.642661
     5  C    0.100270
     6  C    0.051994
     7  C    0.012436
     8  C    0.073522
     9  C   -0.042056
    10  C    0.021672
    11  C   -0.004458
    12  C   -0.012332
    13  C    0.039527
    14  C    0.032027
    15  C    0.103330
    16  C    0.051454
    17  N   -0.396216
    18  C    0.773496
    19  C    0.005351
    20  O   -0.623794
    21  C    0.794816
    22  O   -0.645000
    23  N   -0.404226
    24  C    0.274029
    25  N   -0.407662
    26  C    0.777419
    27  C    0.005620
    28  O   -0.615013
 Sum of Mulliken charges with hydrogens summed into heavy atoms =   0.00000
 DipInt: DoE/N= T F RetVal/Mat= T F Init=T NMatP=  1 IDeriv=0 Min/MaxMlt=  0  4
 Entering OneElI...
 OneElI was handed    32936476 working-precision words.
 Multipole integrals L=0 to 4 MinM= 0 MaxM= 0.
 Requested accuracy = 0.1000D-12
 PrsmSu:  NPrtUS=   1 ThrOK=F IAlg=1
 PRISM was handed    32097011 working-precision words and  9817 shell-pairs
 IPart=  0 NShTot=        9817 NBatch=          72 AvBLen=       136.3
 Electronic moments (au):
       -216.00000000         -0.56516227         -0.20520477         -1.12708336
     -19723.13122205      -2294.56951950      -1225.33513033        -21.51806018
         15.92326504          8.95120764      -7985.88546827      -1244.38799719
       -319.48095957         78.64196507        140.75419612      -2604.84252778
        820.85915056       -963.35412913        118.19776587       6508.05002077
   -2508974.13420019     -63230.97771187     -17852.31220340      45963.12711726
     -44712.09992787     -37124.70288821      -1900.81284406       4366.23848942
      -2289.37743334    -246747.71976163    -132354.38041716     -14101.45554632
       6000.45101554       5234.38264369      14323.27952517
 Electronic spatial extent (au):  <R**2>=          23243.0359
 DipInt: DoE/N= F T RetVal/Mat= T F Init=T NMatP=  1 IDeriv=0 Min/MaxMlt=  0  4
 Nuclear    moments (au):
        216.00000000          0.00000000          0.00000000          0.00000000
      19569.18875082       2178.16662331       1095.43922434          0.00000000
          0.00000000          0.00000000       7935.93739972       1264.18295266
        338.93277039        -60.01747453       -406.47866917       2465.37684851
       -917.64316298        962.30104824       -110.69452639      -6539.51226150
    2434891.24129575      55627.26498656      13644.84175964     -48796.63574055
      47779.81585515      37373.39235977       2050.47008801      -4413.09436426
       2344.43924207     235381.77887409     119806.18289557      12075.12457116
      -5070.74284126      -5083.44886684     -14711.66672627
 Total      moments (au):
          0.00000000         -0.56516227         -0.20520477         -1.12708336
       -153.94247123       -116.40289619       -129.89590599        -21.51806018
         15.92326504          8.95120764        -49.94806855         19.79495547
         19.45181082         18.62449054       -265.72447305       -139.46567927
        -96.78401243         -1.05308089          7.50323948        -31.46224073
     -74082.89290444      -7603.71272531      -4207.47044376      -2833.50862329
       3067.71592728        248.68947156        149.65724395        -46.85587484
         55.06180872     -11365.94088754     -12548.19752159      -2026.33097516
        929.70817429        150.93377685       -388.38720110
 Traceless Quadrup. (au):
        -20.52871342         17.01086161          3.51785181        -21.51806018
         15.92326504          8.95120764
 Charge=              0.0000 electrons
 Dipole moment (field-independent basis, Debye):
    X=             -1.4365    Y=             -0.5216    Z=             -2.8648  Tot=              3.2469
 Quadrupole moment (field-independent basis, Debye-Ang):
   XX=           -207.0579   YY=           -156.5659   ZZ=           -174.7144
   XY=            -28.9425   XZ=             21.4173   YZ=             12.0397
 Traceless Quadrupole moment (field-independent basis, Debye-Ang):
   XX=            -27.6118   YY=             22.8802   ZZ=              4.7316
   XY=            -28.9425   XZ=             21.4173   YZ=             12.0397
 Octapole moment (field-independent basis, Debye-Ang**2):
  XXX=            -35.5511  YYY=             14.0893  ZZZ=             13.8450  XYY=             13.2562
  XXY=           -189.1324  XXZ=            -99.2663  XZZ=            -68.8871  YZZ=             -0.7495
  YYZ=              5.3405  XYZ=            -22.3936
 Hexadecapole moment (field-independent basis, Debye-Ang**3):
 XXXX=         -27903.1680 YYYY=          -2863.9226 ZZZZ=          -1584.7350 XXXY=          -1067.2351
 XXXZ=           1155.4488 YYYX=             93.6684 YYYZ=             56.3681 ZZZX=            -17.6482
 ZZZY=             20.7389 XXYY=          -4280.9581 XXZZ=          -4726.2526 YYZZ=           -763.2134
 XXYZ=            350.1727 YYXZ=             56.8489 ZZXY=           -146.2852
 N-N= 2.623992149525D+03 E-N=-8.278682349185D+03  KE= 1.292509704586D+03
 Entering OneElI...
 OneElI was handed    32450256 working-precision words.
 Calculate electrostatic properties
    NBasis =   492  MinDer = 0  MaxDer = 0
    NGrid  =    64  NMatD  =   1
 Requested accuracy = 0.1000D-12
 PrsmSu:  NPrtUS=   1 ThrOK=F IAlg=1
 PRISM was handed    31707070 working-precision words and  8291 shell-pairs
 IPart=  0 NShTot=      530624 NBatch=        8291 AvBLen=        64.0
 --------------------------------------------------------
       Center         ----      EFG at Nuclei      ----
                      3XX-RR        3YY-RR        3ZZ-RR
 --------------------------------------------------------
     1   Atom        0.105823      0.074863     -0.180686
     2   Atom       -0.317021      0.311515      0.005506
     3   Atom        0.156247     -0.185459      0.029213
     4   Atom       -0.898129      0.174808      0.723320
     5   Atom        0.120128     -0.182375      0.062247
     6   Atom        0.027592      0.003754     -0.031346
     7   Atom       -0.069823      0.017369      0.052454
     8   Atom       -0.049750      0.054958     -0.005208
     9   Atom        0.024246     -0.018668     -0.005578
    10   Atom       -0.002756     -0.089827      0.092583
    11   Atom        0.001848     -0.090996      0.089148
    12   Atom        0.008438     -0.002048     -0.006390
    13   Atom       -0.031981      0.034746     -0.002765
    14   Atom       -0.035554      0.005481      0.030072
    15   Atom        0.086805     -0.206387      0.119582
    16   Atom        0.075138     -0.010521     -0.064617
    17   Atom        0.506402     -0.559935      0.053534
    18   Atom       -0.089624      0.282634     -0.193010
    19   Atom        0.008016     -0.037930      0.029914
    20   Atom       -0.888795      1.649813     -0.761018
    21   Atom       -0.132011      0.024284      0.107727
    22   Atom        0.411550      0.088809     -0.500359
    23   Atom        0.275745     -0.093034     -0.182711
    24   Atom       -0.095906      0.094700      0.001206
    25   Atom        0.102218     -0.495576      0.393358
    26   Atom       -0.249534      0.197527      0.052007
    27   Atom        0.017226     -0.018544      0.001318
    28   Atom       -0.620411      1.601760     -0.981349
    29   Atom       -0.278169      0.146350      0.131819
    30   Atom        0.066738     -0.180826      0.114088
    31   Atom        0.137811     -0.056958     -0.080853
    32   Atom       -0.366174      0.190600      0.175574
    33   Atom        0.096811      0.118317     -0.215129
    34   Atom       -0.287565      0.142350      0.145215
    35   Atom        0.114449     -0.242725      0.128276
    36   Atom        0.094587      0.108008     -0.202596
    37   Atom        0.116583     -0.262266      0.145683
    38   Atom        0.141561     -0.265778      0.124217
    39   Atom        0.066194      0.145964     -0.212158
    40   Atom        0.146052     -0.270994      0.124941
    41   Atom        0.070386      0.147529     -0.217915
    42   Atom        0.123416      0.136727     -0.260143
    43   Atom        0.056124      0.087544     -0.143668
    44   Atom        0.123954     -0.266111      0.142156
    45   Atom       -0.082046      0.148091     -0.066045
    46   Atom        0.118484     -0.264130      0.145646
    47   Atom        0.122150      0.109354     -0.231504
    48   Atom        0.118453      0.110092     -0.228545
    49   Atom        0.117323     -0.266207      0.148884
    50   Atom        0.009700      0.068152     -0.077852
    51   Atom        0.148489     -0.286648      0.138160
    52   Atom       -0.254443      0.135790      0.118653
    53   Atom        0.129993      0.103032     -0.233025
    54   Atom       -0.031153      0.105374     -0.074221
    55   Atom        0.150439     -0.020450     -0.129989
    56   Atom       -0.236589      0.137723      0.098865
    57   Atom        0.198132      0.045197     -0.243329
    58   Atom       -0.151094      0.035395      0.115698
    59   Atom        0.110056      0.132321     -0.242377
    60   Atom        0.132179     -0.277887      0.145708
    61   Atom       -0.217764      0.151677      0.066086
    62   Atom        0.139279      0.137119     -0.276398
    63   Atom       -0.187038      0.141925      0.045113
    64   Atom        0.003470     -0.146072      0.142602
 --------------------------------------------------------
                        XY            XZ            YZ
 --------------------------------------------------------
     1   Atom        0.042496      0.135592     -0.126318
     2   Atom       -0.374187      0.288123     -0.666244
     3   Atom        0.238519     -0.285602      0.286963
     4   Atom       -0.130077      0.020058      1.186968
     5   Atom       -0.080128      0.007053     -0.098103
     6   Atom        0.023238     -0.032431      0.055311
     7   Atom       -0.027984      0.037565      0.000485
     8   Atom        0.005039     -0.039671      0.023370
     9   Atom       -0.000218     -0.009335      0.009278
    10   Atom       -0.258099     -0.016406      0.017302
    11   Atom       -0.244414     -0.015485      0.007244
    12   Atom       -0.014482      0.012135     -0.010161
    13   Atom       -0.014527     -0.018715      0.016697
    14   Atom       -0.045168      0.026596      0.026239
    15   Atom        0.091624     -0.056796      0.020929
    16   Atom        0.026142      0.020550     -0.050838
    17   Atom       -0.069601      0.692193     -0.049113
    18   Atom       -0.059480     -0.436399      0.094864
    19   Atom        0.029025      0.005290     -0.020432
    20   Atom        0.404346      0.030342     -0.213681
    21   Atom       -0.220712      0.385471      0.226864
    22   Atom       -1.043241      0.594645     -0.674716
    23   Atom        0.584406     -0.496768     -0.347643
    24   Atom        0.077830     -0.200080      0.073186
    25   Atom       -0.226922     -0.716510      0.206931
    26   Atom        0.190860      0.415849     -0.018336
    27   Atom       -0.028875     -0.012936     -0.032896
    28   Atom        0.490081     -0.042559     -0.171161
    29   Atom        0.062118     -0.034304      0.000583
    30   Atom       -0.167993     -0.039334     -0.103993
    31   Atom        0.060667     -0.050989      0.209950
    32   Atom       -0.109274      0.088120     -0.024790
    33   Atom        0.041485      0.134885     -0.098355
    34   Atom       -0.009124     -0.018319      0.004520
    35   Atom       -0.114427     -0.029364     -0.075243
    36   Atom        0.044492      0.118514     -0.118833
    37   Atom       -0.091037     -0.006597     -0.022701
    38   Atom        0.020170     -0.003597     -0.093665
    39   Atom        0.026742      0.156771     -0.043918
    40   Atom        0.007838     -0.002104     -0.098385
    41   Atom        0.015956      0.161956     -0.028131
    42   Atom        0.033272      0.101742     -0.082790
    43   Atom        0.091201     -0.163314      0.137725
    44   Atom        0.097917     -0.004223      0.030343
    45   Atom        0.021337     -0.217119      0.018720
    46   Atom        0.097674     -0.008434      0.024242
    47   Atom        0.025754      0.082732     -0.126915
    48   Atom        0.020600      0.086897     -0.114769
    49   Atom        0.085853     -0.001908      0.017073
    50   Atom        0.110368     -0.174202      0.129282
    51   Atom       -0.042701     -0.003287     -0.037873
    52   Atom       -0.082918      0.080203      0.014126
    53   Atom        0.052712      0.223641     -0.136602
    54   Atom       -0.081258     -0.204862     -0.096290
    55   Atom       -0.018926      0.027418      0.212327
    56   Atom        0.024555      0.150295     -0.008201
    57   Atom        0.027096     -0.037155     -0.258349
    58   Atom       -0.184617      0.086597      0.065435
    59   Atom        0.030082      0.098336     -0.093028
    60   Atom        0.086743     -0.006565     -0.027912
    61   Atom       -0.010920     -0.279353      0.014633
    62   Atom        0.004047     -0.083364      0.035602
    63   Atom       -0.044936      0.190807      0.019676
    64   Atom        0.202167     -0.038661      0.049965
 --------------------------------------------------------


 ---------------------------------------------------------------------------------
              Nuclear Quadrupole in Principal Axis System
 ---------------------------------------------------------------------------------

       Atom             a.u.   MegaHertz   Gauss  10(-4) cm-1        Axes

              Baa    -0.2840   -38.115   -13.601   -12.714 -0.3416  0.3478  0.8731
     1 C(13)  Bbb     0.1230    16.499     5.887     5.504  0.2953  0.9217 -0.2515
              Bcc     0.1611    21.616     7.713     7.210  0.8922 -0.1719  0.4175
 
              Baa    -0.5264   -20.301    -7.244    -6.772  0.1639  0.6578  0.7352
     2 N(14)  Bbb    -0.4838   -18.657    -6.657    -6.223  0.9278  0.1505 -0.3415
              Bcc     1.0101    38.958    13.901    12.995 -0.3352  0.7380 -0.5856
 
              Baa    -0.5658   -75.930   -27.094   -25.327 -0.4504  0.7003 -0.5539
     3 C(13)  Bbb     0.1804    24.208     8.638     8.075  0.4203  0.7136  0.5604
              Bcc     0.3854    51.722    18.456    17.253  0.7877  0.0196 -0.6158
 
              Baa    -0.9661    69.905    24.944    23.318  0.8647  0.4061 -0.2956
     4 O(17)  Bbb    -0.7029    50.860    18.148    16.965 -0.5017  0.6684 -0.5492
              Bcc     1.6690  -120.765   -43.092   -40.283 -0.0255  0.6232  0.7817
 
              Baa    -0.2322   -31.164   -11.120   -10.395  0.2054  0.9300  0.3049
     5 C(13)  Bbb     0.0783    10.511     3.750     3.506 -0.4811 -0.1754  0.8590
              Bcc     0.1539    20.653     7.369     6.889  0.8523 -0.3231  0.4114
 
              Baa    -0.0859   -11.521    -4.111    -3.843  0.3318 -0.5563  0.7619
     6 C(13)  Bbb     0.0416     5.578     1.990     1.861  0.9340  0.3074 -0.1822
              Bcc     0.0443     5.943     2.121     1.982 -0.1328  0.7720  0.6216
 
              Baa    -0.0875   -11.735    -4.187    -3.914  0.9347  0.2507 -0.2518
     7 C(13)  Bbb     0.0232     3.108     1.109     1.037 -0.1932  0.9533  0.2320
              Bcc     0.0643     8.627     3.078     2.878  0.2983 -0.1682  0.9396
 
              Baa    -0.0750   -10.069    -3.593    -3.359  0.8437 -0.1265  0.5217
     8 C(13)  Bbb     0.0114     1.525     0.544     0.509 -0.5298 -0.3523  0.7715
              Bcc     0.0637     8.544     3.049     2.850 -0.0862  0.9273  0.3643
 
              Baa    -0.0239    -3.201    -1.142    -1.068 -0.0906  0.8685 -0.4873
     9 C(13)  Bbb    -0.0033    -0.436    -0.156    -0.146  0.2834  0.4916  0.8234
              Bcc     0.0271     3.637     1.298     1.213  0.9547 -0.0635 -0.2907
 
              Baa    -0.3081   -41.338   -14.750   -13.789  0.6454  0.7638 -0.0066
    10 C(13)  Bbb     0.0882    11.834     4.223     3.947  0.1440 -0.1132  0.9831
              Bcc     0.2199    29.504    10.528     9.841  0.7502 -0.6354 -0.1831
 
              Baa    -0.2934   -39.372   -14.049   -13.133  0.6380  0.7700  0.0112
    11 C(13)  Bbb     0.0869    11.656     4.159     3.888  0.1004 -0.0977  0.9901
              Bcc     0.2065    27.716     9.890     9.245  0.7635 -0.6306 -0.1396
 
              Baa    -0.0146    -1.963    -0.700    -0.655 -0.0552  0.5882  0.8068
    12 C(13)  Bbb    -0.0116    -1.557    -0.556    -0.519  0.6834  0.6114 -0.3990
              Bcc     0.0262     3.520     1.256     1.174  0.7280 -0.5294  0.4357
 
              Baa    -0.0416    -5.583    -1.992    -1.862  0.9114  0.0854  0.4025
    13 C(13)  Bbb    -0.0049    -0.657    -0.235    -0.219 -0.3208 -0.4650  0.8251
              Bcc     0.0465     6.241     2.227     2.082 -0.2576  0.8812  0.3965
 
              Baa    -0.0772   -10.356    -3.695    -3.454  0.7831  0.5308 -0.3241
    14 C(13)  Bbb     0.0303     4.070     1.452     1.358 -0.6198  0.6236 -0.4764
              Bcc     0.0468     6.286     2.243     2.097 -0.0508  0.5739  0.8173
 
              Baa    -0.2363   -31.713   -11.316   -10.578 -0.2879  0.9522 -0.1019
    15 C(13)  Bbb     0.0693     9.304     3.320     3.103  0.6919  0.2804  0.6653
              Bcc     0.1670    22.410     7.996     7.475 -0.6621 -0.1210  0.7396
 
              Baa    -0.1007   -13.511    -4.821    -4.507 -0.1752  0.5216  0.8350
    16 C(13)  Bbb     0.0179     2.401     0.857     0.801 -0.1767  0.8177 -0.5479
              Bcc     0.0828    11.110     3.964     3.706  0.9685  0.2435  0.0510
 
              Baa    -0.5646   -21.774    -7.769    -7.263  0.0493  0.9985  0.0241
    17 N(14)  Bbb    -0.4483   -17.290    -6.170    -5.767 -0.5865  0.0094  0.8099
              Bcc     1.0129    39.064    13.939    13.030  0.8084 -0.0541  0.5861
 
              Baa    -0.5819   -78.089   -27.864   -26.048  0.6604 -0.0369  0.7500
    18 C(13)  Bbb     0.1833    24.600     8.778     8.206  0.5306  0.7297 -0.4313
              Bcc     0.3986    53.489    19.086    17.842 -0.5314  0.6827  0.5015
 
              Baa    -0.0569    -7.638    -2.725    -2.548 -0.4126  0.8808  0.2324
    19 C(13)  Bbb     0.0209     2.806     1.001     0.936  0.8978  0.3501  0.2671
              Bcc     0.0360     4.832     1.724     1.612 -0.1538 -0.3188  0.9352
 
              Baa    -0.9719    70.324    25.093    23.458  0.9367 -0.1694 -0.3065
    20 O(17)  Bbb    -0.7579    54.842    19.569    18.293  0.3159  0.0311  0.9483
              Bcc     1.7298  -125.166   -44.662   -41.751  0.1511  0.9850 -0.0827
 
              Baa    -0.5783   -77.609   -27.693   -25.888  0.6995  0.4616 -0.5456
    21 C(13)  Bbb     0.1764    23.674     8.447     7.897 -0.4909  0.8652  0.1026
              Bcc     0.4019    53.935    19.245    17.991  0.5194  0.1961  0.8317
 
              Baa    -0.9556    69.146    24.673    23.065  0.1793  0.6539  0.7350
    22 O(17)  Bbb    -0.7164    51.839    18.497    17.292  0.7017  0.4386 -0.5615
              Bcc     1.6720  -120.985   -43.171   -40.356  0.6896 -0.6164  0.3802
 
              Baa    -0.5255   -20.267    -7.232    -6.760 -0.6743  0.6803 -0.2873
    23 N(14)  Bbb    -0.4863   -18.756    -6.693    -6.256  0.1573  0.5125  0.8442
              Bcc     1.0118    39.023    13.924    13.017  0.7215  0.5240 -0.4526
 
              Baa    -0.2832   -38.006   -13.561   -12.677  0.7530 -0.2712  0.5995
    24 C(13)  Bbb     0.1224    16.424     5.861     5.478  0.3582  0.9332 -0.0278
              Bcc     0.1608    21.581     7.701     7.199 -0.5519  0.2357  0.7999
 
              Baa    -0.5764   -22.232    -7.933    -7.416  0.4402  0.8876  0.1358
    25 N(14)  Bbb    -0.4627   -17.845    -6.368    -5.952  0.6445 -0.4176  0.6404
              Bcc     1.0391    40.077    14.301    13.368 -0.6252  0.1944  0.7559
 
              Baa    -0.5775   -77.489   -27.650   -25.848  0.8124 -0.2129 -0.5429
    26 C(13)  Bbb     0.1810    24.294     8.669     8.104 -0.1228  0.8476 -0.5162
              Bcc     0.3964    53.195    18.981    17.744  0.5701  0.4860  0.6624
 
              Baa    -0.0561    -7.527    -2.686    -2.511  0.3907  0.7580  0.5223
    27 C(13)  Bbb     0.0214     2.869     1.024     0.957 -0.5217 -0.2852  0.8040
              Bcc     0.0347     4.658     1.662     1.554  0.7584 -0.5866  0.2840
 
              Baa    -0.9930    71.854    25.639    23.968  0.0364  0.0589  0.9976
    28 O(17)  Bbb    -0.7235    52.355    18.682    17.464  0.9779 -0.2078 -0.0235
              Bcc     1.7166  -124.209   -44.321   -41.432  0.2059  0.9764 -0.0652
 
              Baa    -0.2898  -154.634   -55.177   -51.580  0.9868 -0.1406  0.0805
    29 H(1)   Bbb     0.1337    71.346    25.458    23.798 -0.0507  0.2040  0.9777
              Bcc     0.1561    83.289    29.719    27.782  0.1539  0.9688 -0.1942
 
              Baa    -0.2956  -157.704   -56.273   -52.604  0.4293  0.8647  0.2607
    30 H(1)   Bbb     0.1358    72.437    25.847    24.162 -0.6173  0.0702  0.7836
              Bcc     0.1598    85.267    30.425    28.442  0.6593 -0.4973  0.5639
 
              Baa    -0.2936  -156.635   -55.891   -52.248  0.1796 -0.6783  0.7125
    31 H(1)   Bbb     0.1363    72.748    25.958    24.266 -0.4830  0.5702  0.6645
              Bcc     0.1572    83.887    29.933    27.982  0.8570  0.4635  0.2252
 
              Baa    -0.3986  -212.680   -75.890   -70.942  0.9743  0.1747 -0.1420
    32 H(1)   Bbb     0.1572    83.885    29.932    27.981  0.0063  0.6093  0.7929
              Bcc     0.2414   128.795    45.957    42.962 -0.2251  0.7734 -0.5926
 
              Baa    -0.2930  -156.341   -55.786   -52.150 -0.3403  0.2510  0.9062
    33 H(1)   Bbb     0.1421    75.803    27.048    25.285 -0.5548  0.7245 -0.4090
              Bcc     0.1509    80.538    28.738    26.865  0.7592  0.6419  0.1073
 
              Baa    -0.2885  -153.943   -54.931   -51.350  0.9989  0.0207  0.0420
    34 H(1)   Bbb     0.1391    74.199    26.476    24.750  0.0074  0.8161 -0.5779
              Bcc     0.1495    79.743    28.454    26.600 -0.0462  0.5776  0.8150
 
              Baa    -0.2917  -155.616   -55.528   -51.908  0.2789  0.9417  0.1882
    35 H(1)   Bbb     0.1386    73.951    26.388    24.667  0.5265 -0.3139  0.7901
[...]
 **** Fit      -0.012278
 **** Fit      -0.008177
 **** Fit      -0.004974
 **** Fit      -0.002384
 **** Fit      -0.000169
 **** Fit      -0.020024
 **** Fit      -0.014545
 **** Fit      -0.010270
 **** Fit      -0.006918
 **** Fit      -0.004251
 **** Fit      -0.002064
 **** Fit      -0.000179
 **** Fit      -0.027245
 **** Fit      -0.021161
 **** Fit      -0.016045
 **** Fit      -0.011876
 **** Fit      -0.008516
 **** Fit      -0.005807
 **** Fit      -0.003602
 **** Fit      -0.001761
 **** Fit      -0.000156
 **** Fit       0.001351
 **** Fit      -0.025146
 **** Fit      -0.020051
 **** Fit      -0.015622
 **** Fit      -0.011885
 **** Fit      -0.008789
 **** Fit      -0.006241
 **** Fit      -0.004142
 **** Fit      -0.002391
 **** Fit      -0.000888
 **** Fit       0.000472
 **** Fit      -0.026450
 **** Fit      -0.021251
 **** Fit      -0.016825
 **** Fit      -0.013056
 **** Fit      -0.009885
 **** Fit      -0.007245
 **** Fit      -0.005059
 **** Fit      -0.003243
 **** Fit      -0.001710
 **** Fit      -0.000368
 **** Fit       0.000880
 **** Fit      -0.028114
 **** Fit      -0.022019
 **** Fit      -0.017289
 **** Fit      -0.013425
 **** Fit      -0.010220
 **** Fit      -0.007562
 **** Fit      -0.005365
 **** Fit      -0.003545
 **** Fit      -0.002018
 **** Fit      -0.000694
 **** Fit       0.000521
 **** Fit      -0.023755
 **** Fit      -0.018375
 **** Fit      -0.014218
 **** Fit      -0.010876
 **** Fit      -0.008146
 **** Fit      -0.005904
 **** Fit      -0.004057
 **** Fit      -0.002517
 **** Fit      -0.001196
 **** Fit      -0.000004
 **** Fit      -0.022988
 **** Fit      -0.017413
 **** Fit      -0.013194
 **** Fit      -0.009888
 **** Fit      -0.007251
 **** Fit      -0.005127
 **** Fit      -0.003399
 **** Fit      -0.001959
 **** Fit      -0.000701
 **** Fit      -0.021891
 **** Fit      -0.016465
 **** Fit      -0.012320
 **** Fit      -0.009107
 **** Fit      -0.006588
 **** Fit      -0.004596
 **** Fit      -0.002991
 **** Fit      -0.001652
 **** Fit      -0.019046
 **** Fit      -0.014196
 **** Fit      -0.010408
 **** Fit      -0.007506
 **** Fit      -0.005292
 **** Fit      -0.003593
 **** Fit      -0.014922
 **** Fit      -0.010701
 **** Fit      -0.007510
 **** Fit      -0.000427
 **** Fit      -0.001706
 **** Fit      -0.003194
 **** Fit      -0.004998
 **** Fit       0.001584
 **** Fit       0.000686
 **** Fit      -0.000343
 **** Fit      -0.001573
 **** Fit      -0.003103
 **** Fit      -0.005104
 **** Fit      -0.007895
 **** Fit      -0.012094
 **** Fit       0.002174
 **** Fit       0.001512
 **** Fit       0.000732
 **** Fit      -0.000214
 **** Fit      -0.001400
 **** Fit      -0.002942
 **** Fit      -0.005022
 **** Fit      -0.007960
 **** Fit      -0.012313
 **** Fit       0.002100
 **** Fit       0.001749
 **** Fit       0.001251
 **** Fit       0.000596
 **** Fit      -0.000257
 **** Fit      -0.001378
 **** Fit      -0.002877
 **** Fit      -0.004925
 **** Fit      -0.007796
 **** Fit      -0.011919
 **** Fit      -0.017926
 **** Fit       0.001082
 **** Fit       0.001150
 **** Fit       0.000967
 **** Fit       0.000556
 **** Fit      -0.000094
 **** Fit      -0.001035
 **** Fit      -0.002361
 **** Fit      -0.004220
 **** Fit      -0.006842
 **** Fit      -0.010558
 **** Fit      -0.015786
 **** Fit      -0.019190
 **** Fit      -0.022079
 **** Fit      -0.001359
 **** Fit      -0.000497
 **** Fit      -0.000085
 **** Fit      -0.000049
 **** Fit      -0.000351
 **** Fit      -0.001001
 **** Fit      -0.002057
 **** Fit      -0.003637
 **** Fit      -0.005918
 **** Fit      -0.009139
 **** Fit      -0.013545
 **** Fit      -0.015817
 **** Fit      -0.020423
 **** Fit      -0.023456
 **** Fit      -0.023525
 **** Fit      -0.020731
 **** Fit      -0.016446
 **** Fit      -0.012041
 **** Fit      -0.008271
 **** Fit      -0.005380
 **** Fit      -0.003357
 **** Fit      -0.002100
 **** Fit      -0.001494
 **** Fit      -0.001454
 **** Fit      -0.001955
 **** Fit      -0.003044
 **** Fit      -0.004844
 **** Fit      -0.007530
 **** Fit      -0.011239
 **** Fit      -0.012868
 **** Fit      -0.016159
 **** Fit      -0.016850
 **** Fit      -0.014537
 **** Fit      -0.010800
 **** Fit      -0.007295
 **** Fit      -0.004790
 **** Fit      -0.003433
 **** Fit      -0.003162
 **** Fit      -0.003943
 **** Fit      -0.005852
 **** Fit      -0.008954
 **** Fit      -0.010344
 **** Fit      -0.011921
 **** Fit      -0.009494
 **** Fit      -0.006377
 **** Fit      -0.005358
 **** Fit      -0.006978
 **** Fit      -0.008203
 **** Fit       0.015591
 **** Fit       0.015810
 **** Fit       0.016845
 **** Fit       0.012379
 **** Fit       0.012491
 **** Fit       0.012956
 **** Fit       0.013580
 **** Fit       0.014322
 **** Fit       0.015269
 **** Fit       0.016672
 **** Fit       0.009416
 **** Fit       0.009980
 **** Fit       0.010638
 **** Fit       0.011287
 **** Fit       0.011878
 **** Fit       0.012401
 **** Fit       0.012882
 **** Fit       0.013383
 **** Fit       0.014008
 **** Fit       0.007406
 **** Fit       0.008307
 **** Fit       0.009139
 **** Fit       0.009865
 **** Fit       0.010464
 **** Fit       0.010929
 **** Fit       0.011265
 **** Fit       0.011488
 **** Fit       0.011619
 **** Fit       0.011677
 **** Fit       0.011657
 **** Fit       0.006112
 **** Fit       0.007120
 **** Fit       0.008005
 **** Fit       0.008754
 **** Fit       0.009357
 **** Fit       0.009811
 **** Fit       0.010115
 **** Fit       0.010272
 **** Fit       0.010289
 **** Fit       0.010165
 **** Fit       0.009884
 **** Fit       0.009389
 **** Fit       0.005181
 **** Fit       0.006231
 **** Fit       0.007143
 **** Fit       0.007905
 **** Fit       0.008511
 **** Fit       0.008955
 **** Fit       0.009236
 **** Fit       0.009355
 **** Fit       0.009312
 **** Fit       0.009102
 **** Fit       0.008710
 **** Fit       0.008093
 **** Fit       0.007137
 **** Fit       0.004574
 **** Fit       0.005571
 **** Fit       0.006444
 **** Fit       0.007177
 **** Fit       0.007759
 **** Fit       0.008184
 **** Fit       0.008449
 **** Fit       0.008550
 **** Fit       0.008487
 **** Fit       0.008256
 **** Fit       0.007845
 **** Fit       0.007228
 **** Fit       0.006343
 **** Fit       0.005054
 **** Fit       0.004614
 **** Fit       0.005477
 **** Fit       0.006226
 **** Fit       0.006841
 **** Fit       0.007310
 **** Fit       0.007623
 **** Fit       0.007777
 **** Fit       0.007768
 **** Fit       0.007593
 **** Fit       0.007245
 **** Fit       0.006713
 **** Fit       0.005969
 **** Fit       0.004957
 **** Fit       0.004638
 **** Fit       0.005385
 **** Fit       0.006019
 **** Fit       0.006513
 **** Fit       0.006852
 **** Fit       0.007028
 **** Fit       0.007032
 **** Fit       0.006862
 **** Fit       0.006512
 **** Fit       0.005973
 **** Fit       0.005229
 **** Fit       0.004243
 **** Fit       0.004962
 **** Fit       0.005529
 **** Fit       0.005956
 **** Fit       0.006223
 **** Fit       0.006315
 **** Fit       0.006225
 **** Fit       0.005946
 **** Fit       0.005475
 **** Fit       0.004805
 **** Fit       0.005047
 **** Fit       0.005388
 **** Fit       0.005568
 **** Fit       0.005571
 **** Fit       0.005388
 **** Fit       0.005016
 **** Fit       0.004456
 **** Fit       0.004844
 **** Fit       0.004902
 **** Fit       0.004762
 **** Fit       0.004422
 **** Fit       0.023759
 **** Fit       0.022547
 **** Fit       0.023205
 **** Fit       0.023792
 **** Fit       0.023944
 **** Fit       0.023456
 **** Fit       0.021735
 **** Fit       0.021493
 **** Fit       0.022406
 **** Fit       0.023446
 **** Fit       0.024109
 **** Fit       0.024185
 **** Fit       0.023706
 **** Fit       0.022822
 **** Fit       0.020619
 **** Fit       0.020930
 **** Fit       0.022523
 **** Fit       0.023787
 **** Fit       0.024448
 **** Fit       0.024470
 **** Fit       0.023961
 **** Fit       0.023050
 **** Fit       0.021874
 **** Fit       0.019010
 **** Fit       0.020535
 **** Fit       0.022654
 **** Fit       0.024183
 **** Fit       0.024899
 **** Fit       0.024861
 **** Fit       0.024279
 **** Fit       0.023310
 **** Fit       0.022031
 **** Fit       0.020532
 **** Fit       0.016752
 **** Fit       0.024636
 **** Fit       0.023531
 **** Fit       0.022186
 **** Fit       0.020556
 **** Fit       0.018681
 **** Fit       0.013763
 **** Fit       0.020967
 **** Fit       0.018915
 **** Fit       0.016450
 **** Fit       0.010064
 **** Fit       0.017021
 **** Fit       0.013803
 **** Fit       0.005808
 **** Fit      -0.000156
 **** Fit       0.022084
 **** Fit       0.022175
 **** Fit       0.021223
 **** Fit       0.019398
 **** Fit       0.019661
 **** Fit       0.021523
 **** Fit       0.019677
 **** Fit       0.018110
 **** Fit       0.017389
 **** Fit       0.017228
 **** Fit       0.017648
 **** Fit       0.018914
 **** Fit       0.020255
 **** Fit       0.024230
 **** Fit       0.017632
 **** Fit       0.016690
 **** Fit       0.016130
 **** Fit       0.015793
 **** Fit       0.015633
 **** Fit       0.015659
 **** Fit       0.015939
 **** Fit       0.016610
 **** Fit       0.017917
 **** Fit       0.018567
 **** Fit       0.021937
 **** Fit       0.015532
 **** Fit       0.015191
 **** Fit       0.014914
 **** Fit       0.014676
 **** Fit       0.014485
 **** Fit       0.014349
 **** Fit       0.014274
 **** Fit       0.014280
 **** Fit       0.014410
 **** Fit       0.014741
 **** Fit       0.015396
 **** Fit       0.016567
 **** Fit       0.013269
 **** Fit       0.013387
 **** Fit       0.013357
 **** Fit       0.013282
 **** Fit       0.013202
 **** Fit       0.013129
 **** Fit       0.013070
 **** Fit       0.013042
 **** Fit       0.013070
 **** Fit       0.013200
 **** Fit       0.013502
 **** Fit       0.014076
 **** Fit       0.015068
 **** Fit       0.011497
 **** Fit       0.011877
 **** Fit       0.012007
 **** Fit       0.012041
 **** Fit       0.012040
 **** Fit       0.012021
 **** Fit       0.011988
 **** Fit       0.011948
 **** Fit       0.011909
 **** Fit       0.011890
 **** Fit       0.011920
 **** Fit       0.012043
 **** Fit       0.012319
 **** Fit       0.012827
 **** Fit       0.009992
 **** Fit       0.010452
 **** Fit       0.010657
 **** Fit       0.010768
 **** Fit       0.010838
 **** Fit       0.010882
 **** Fit       0.010899
 **** Fit       0.010891
 **** Fit       0.010863
 **** Fit       0.010827
 **** Fit       0.010803
 **** Fit       0.010824
 **** Fit       0.010937
 **** Fit       0.008731
 **** Fit       0.009092
 **** Fit       0.009304
 **** Fit       0.009470
 **** Fit       0.009610
 **** Fit       0.009725
 **** Fit       0.009807
 **** Fit       0.009852
 **** Fit       0.009863
 **** Fit       0.009846
 **** Fit       0.009817
 **** Fit       0.009802
 **** Fit       0.008067
 **** Fit       0.008290
 **** Fit       0.008501
 **** Fit       0.008679
 **** Fit       0.008811
 **** Fit       0.008893
 **** Fit       0.008929
 **** Fit       0.008930
 **** Fit       0.013031
 **** Fit       0.013543
 **** Fit       0.013137
 **** Fit       0.010022
 **** Fit       0.009490
 **** Fit       0.009213
 **** Fit       0.009832
 **** Fit       0.011121
 **** Fit       0.010577
 **** Fit       0.007652
 **** Fit       0.006450
 **** Fit       0.004947
 **** Fit       0.003268
 **** Fit       0.001866
 **** Fit       0.009820
 **** Fit       0.009253
 **** Fit       0.008564
 **** Fit       0.005730
 **** Fit       0.004123
 **** Fit       0.001936
 **** Fit      -0.000973
 **** Fit      -0.004710
 **** Fit       0.008801
 **** Fit       0.008319
 **** Fit       0.007717
 **** Fit       0.006890
 **** Fit       0.004116
 **** Fit       0.002172
 **** Fit      -0.000545
 **** Fit      -0.004326
 **** Fit      -0.009580
 **** Fit       0.008005
 **** Fit       0.007603
 **** Fit       0.007121
 **** Fit       0.006453
 **** Fit       0.005492
 **** Fit       0.002700
 **** Fit       0.000572
 **** Fit      -0.002402
 **** Fit      -0.006565
 **** Fit      -0.012442
 **** Fit       0.006885
 **** Fit       0.006507
 **** Fit       0.006000
 **** Fit       0.005270
 **** Fit       0.004212
 **** Fit       0.001398
 **** Fit      -0.000853
 **** Fit      -0.003979
 **** Fit      -0.008330
 **** Fit      -0.014436
 **** Fit       0.005854
 **** Fit       0.005468
 **** Fit       0.004930
 **** Fit       0.004144
 **** Fit       0.003009
 **** Fit       0.000146
 **** Fit      -0.002266
 **** Fit      -0.005614
 **** Fit      -0.010256
 **** Fit      -0.016720
 **** Fit       0.004884
 **** Fit       0.004480
 **** Fit       0.003913
 **** Fit       0.003080
 **** Fit       0.001869
 **** Fit      -0.001110
 **** Fit      -0.003671
 **** Fit      -0.007215
 **** Fit      -0.012084
 **** Fit      -0.018723
 **** Fit       0.003897
 **** Fit       0.003461
 **** Fit       0.002866
 **** Fit       0.001992
 **** Fit       0.000716
 **** Fit      -0.002414
 **** Fit      -0.005034
 **** Fit      -0.008612
 **** Fit      -0.013410
 **** Fit      -0.019684
 **** Fit       0.002326
 **** Fit       0.001695
 **** Fit       0.000787
 **** Fit      -0.000533
 **** Fit      -0.003807
 **** Fit      -0.006621
 **** Fit      -0.010448
 **** Fit      -0.015469
 **** Fit      -0.021708
 **** Fit       0.000526
 **** Fit      -0.000418
 **** Fit      -0.001803
 **** Fit      -0.005329
 **** Fit      -0.008301
 **** Fit      -0.012300
 **** Fit      -0.017377
 **** Fit      -0.023369
 **** Fit      -0.001787
 **** Fit      -0.003223
 **** Fit      -0.007027
 **** Fit      -0.010314
 **** Fit      -0.014726
 **** Fit      -0.004756
 **** Fit       0.003739
 **** Fit       0.004564
 **** Fit       0.005204
 **** Fit       0.005672
 **** Fit       0.005985
 **** Fit       0.006159
 **** Fit      -0.000118
 **** Fit       0.001515
 **** Fit       0.002776
 **** Fit       0.003736
 **** Fit       0.004446
 **** Fit       0.004942
 **** Fit       0.005253
 **** Fit       0.005405
 **** Fit       0.005422
 **** Fit       0.005331
 **** Fit      -0.006847
 **** Fit      -0.003401
 **** Fit      -0.000918
 **** Fit       0.000914
 **** Fit       0.002269
 **** Fit       0.003256
 **** Fit       0.003945
 **** Fit       0.004385
 **** Fit       0.004614
 **** Fit       0.004662
 **** Fit       0.004557
 **** Fit       0.004331
 **** Fit       0.004017
 **** Fit      -0.009523
 **** Fit      -0.005266
 **** Fit      -0.002279
 **** Fit      -0.000136
 **** Fit       0.001405
 **** Fit       0.002490
 **** Fit       0.003213
 **** Fit       0.003638
 **** Fit       0.003810
 **** Fit       0.003766
 **** Fit       0.003536
 **** Fit       0.003151
 **** Fit       0.002642
 **** Fit      -0.011519
 **** Fit      -0.006797
 **** Fit      -0.003500
 **** Fit      -0.001162
 **** Fit       0.000489
 **** Fit       0.001619
 **** Fit       0.002335
 **** Fit       0.002710
 **** Fit       0.002794
 **** Fit       0.002625
 **** Fit       0.002232
 **** Fit       0.001637
 **** Fit       0.000853
 **** Fit      -0.012640
 **** Fit      -0.007610
 **** Fit      -0.004144
 **** Fit      -0.001752
 **** Fit      -0.000142
 **** Fit       0.000868
 **** Fit       0.001397
 **** Fit       0.001519
 **** Fit       0.001288
 **** Fit       0.000733
 **** Fit      -0.000132
 **** Fit      -0.001327
 **** Fit      -0.002925
 **** Fit      -0.006831
 **** Fit      -0.013141
 **** Fit      -0.008133
 **** Fit      -0.004710
 **** Fit      -0.002431
 **** Fit      -0.001012
 **** Fit      -0.000273
 **** Fit      -0.000100
 **** Fit      -0.000422
 **** Fit      -0.001210
 **** Fit      -0.002476
 **** Fit      -0.004294
 **** Fit      -0.008399
 **** Fit      -0.012520
 **** Fit      -0.016166
 **** Fit      -0.010381
 **** Fit      -0.006444
 **** Fit      -0.003957
 **** Fit      -0.002599
 **** Fit      -0.002159
 **** Fit      -0.002514
 **** Fit      -0.003622
 **** Fit      -0.005529
 **** Fit      -0.009904
 **** Fit      -0.014837
 **** Fit      -0.021199
 **** Fit      -0.015366
 **** Fit      -0.009852
 **** Fit      -0.006448
 **** Fit      -0.004948
 **** Fit      -0.005075
 **** Fit      -0.006704
 **** Fit      -0.011390
 **** Fit      -0.016800
 **** Fit      -0.018888
 **** Fit      -0.014209
 **** Fit      -0.009398
 **** Fit      -0.008413
 **** Fit      -0.012846
 -----------------------------------------------------------------
 Leave Link  602 at Fri Nov 22 06:58:38 2019, MaxMem=   33554432 cpu:       5.5

 Test job not archived.
 1\1\GINC-MOSURA\FOpt\RHF\6-31G(d)\C20H36N4O4\MARIE\22-Nov-2019\0\\#HF/
 6-31G* SCF=tight Test Pop=MK iop(6/33=2) iop(6/42=6) opt\\remark line 
 goes here\\0,1\C,-5.1353789767,-1.6444088631,4.3285851369\N,-4.7730002
 99,-0.88398795,3.1487252447\C,-5.6263623831,-0.8198208739,2.1052508909
 \O,-6.7543208641,-1.2263639092,2.1727871165\C,-5.1742897727,-0.0579677
 172,0.8340035474\C,-6.0155014895,1.2324146058,0.8334218657\C,-3.687924
 2989,0.3592032635,0.7542038166\C,-2.6139359109,-0.7091403094,0.5195321
 203\C,-1.2089131639,-0.0876924166,0.5174243413\C,-0.1320276868,-1.1188
 043898,0.300736332\C,0.7481871154,-1.1909943376,-0.6847194525\C,0.9063
 829419,-0.2434269336,-1.8501565965\C,2.0299741842,0.7933530374,-1.6689
 655724\C,3.4243577633,0.1605345758,-1.6039009103\C,4.5866380254,1.1212
 276966,-1.2583924888\C,4.6379404665,2.3011329466,-2.2374940272\N,4.378
 7366712,1.6054165574,0.1032719538\C,5.3598411677,2.2710515011,0.775277
 8368\C,5.1472650159,2.3915396999,2.2672453983\O,6.3265090672,2.7271190
 994,0.2283530724\C,5.8539555261,0.2321988402,-1.253775338\O,6.00514025
 52,-0.5749250323,-0.3753136604\N,6.6994449628,0.3273665681,-2.30066000
 99\C,7.9335389717,-0.4322252717,-2.3081124767\N,-5.5836707792,-0.82692
 03901,-0.3385058087\C,-5.4690620183,-2.1820457998,-0.4088894246\C,-6.2
 68322902,-2.8374046903,-1.5125686452\O,-4.7881591925,-2.8147065078,0.3
 492160707\H,-6.0879075109,-1.300979419,4.7035145973\H,-4.3800559878,-1
 .4847286139,5.087046697\H,-5.211182212,-2.7047469935,4.1154713108\H,-3
 .8045760197,-0.7734804266,2.9665027661\H,-5.834876446,1.7974108008,-0.
 0757946943\H,-7.0688970572,0.995581169,0.9050390845\H,-5.7496119668,1.
 8595008675,1.6765577933\H,-3.6221701309,1.0705884881,-0.0641994716\H,-
 3.450893884,0.927523971,1.6511830339\H,-2.7863215275,-1.1968237622,-0.
 4313277138\H,-2.6627166522,-1.4969016271,1.2623197779\H,-1.0329231535,
 0.399832797,1.4765113549\H,-1.1554895394,0.6943901892,-0.2320700486\H,
 -0.0980726848,-1.8939559697,1.0513706962\H,1.4399163861,-2.0176834946,
 -0.6625107493\H,1.1036478607,-0.8255173943,-2.7479760559\H,-0.02094769
 96,0.2869897238,-2.0333500815\H,1.8334018044,1.3689611514,-0.769536410
 2\H,1.983524119,1.4903395425,-2.4998457914\H,3.4407402613,-0.637863825
 3,-0.8709810338\H,3.6483622626,-0.3008985911,-2.5623663042\H,3.7686799
 51,2.9282715297,-2.0921705921\H,4.6284536461,1.9516957973,-3.265627664
 9\H,5.5122922386,2.9138027681,-2.0719263316\H,3.7988001392,1.026654036
 1,0.6695824517\H,5.4973144843,1.4803464294,2.7429939377\H,5.7289234608
 ,3.221824016,2.6406096799\H,4.1023078697,2.5303521807,2.5199914003\H,6
 .6786117126,1.1584670164,-2.8423019585\H,8.6200687499,-0.0938028349,-1
 .5398858325\H,7.7180648667,-1.4766325092,-2.1386334276\H,8.4013091177,
 -0.3217352389,-3.2777339018\H,-6.3278371013,-0.4309093502,-0.867187863
 2\H,-6.3115935586,-2.2264157921,-2.4071988522\H,-7.2814618351,-2.99963
 07111,-1.1575158381\H,-5.8269263601,-3.7955489199,-1.7451342973\\Versi
 on=EM64L-G09RevA.02\State=1-A\HF=-1295.6234625\RMSD=6.734e-09\RMSF=1.6
 77e-06\Dipole=-0.5871168,1.1421807,-1.0882646\Quadrupole=-17.9837421,-
 3.7750027,21.7587447,-13.0240329,2.786039,2.4995423\PG=C01 [X(C20H36N4
 O4)]\\@


 WE DON'T KNOW ONE MILLIONTH OF ONE PERCENT ABOUT
 ANYTHING.
                                     T. A. EDISON.
 Job cpu time:  0 days  2 hours 20 minutes 26.2 seconds.
 File lengths (MBytes):  RWF=    156 Int=      0 D2E=      0 Chk=     17 Scr=      1
 Normal termination of Gaussian 09 at Fri Nov 22 06:58:38 2019.
