 Entering Gaussian System, Link 0=g09
 Input=23.gau
 Output=23.log
 Initial command:
 /home/marie/Utilities//g09/l1.exe /tmp/g09/Gau-7429.inp -scrdir=/tmp/g09/
 Entering Link 1 = /home/marie/Utilities//g09/l1.exe PID=      7435.
  
 Copyright (c) 1988,1990,1992,1993,1995,1998,2003,2009, Gaussian, Inc.
                  All Rights Reserved.
  
 This is part of the Gaussian(R) 09 program.  It is based on
 the Gaussian(R) 03 system (copyright 2003, Gaussian, Inc.),
 the Gaussian(R) 98 system (copyright 1998, Gaussian, Inc.),
 the Gaussian(R) 94 system (copyright 1995, Gaussian, Inc.),
 the Gaussian 92(TM) system (copyright 1992, Gaussian, Inc.),
 the Gaussian 90(TM) system (copyright 1990, Gaussian, Inc.),
 the Gaussian 88(TM) system (copyright 1988, Gaussian, Inc.),
 the Gaussian 86(TM) system (copyright 1986, Carnegie Mellon
 University), and the Gaussian 82(TM) system (copyright 1983,
 Carnegie Mellon University). Gaussian is a federally registered
 trademark of Gaussian, Inc.
  
 This software contains proprietary and confidential information,
 including trade secrets, belonging to Gaussian, Inc.
  
 This software is provided under written license and may be
 used, copied, transmitted, or stored only in accord with that
 written license.
  
 The following legend is applicable only to US Government
 contracts under FAR:
  
                    RESTRICTED RIGHTS LEGEND
  
 Use, reproduction and disclosure by the US Government is
 subject to restrictions as set forth in subparagraphs (a)
 and (c) of the Commercial Computer Software - Restricted
 Rights clause in FAR 52.227-19.
  
 Gaussian, Inc.
 340 Quinnipiac St., Bldg. 40, Wallingford CT 06492
  
  
 ---------------------------------------------------------------
 Warning -- This program may not be used in any manner that
 competes with the business of Gaussian, Inc. or will provide
 assistance to any competitor of Gaussian, Inc.  The licensee
 of this program is prohibited from giving any competitor of
 Gaussian, Inc. access to this program.  By using this program,
 the user acknowledges that Gaussian, Inc. is engaged in the
 business of creating and licensing software in the field of
 computational chemistry and represents and warrants to the
 licensee that it is not a competitor of Gaussian, Inc. and that
 it will not use this program in any manner prohibited above.
 ---------------------------------------------------------------
  

 Cite this work as:
 Gaussian 09, Revision A.02,
 M. J. Frisch, G. W. Trucks, H. B. Schlegel, G. E. Scuseria, 
 M. A. Robb, J. R. Cheeseman, G. Scalmani, V. Barone, B. Mennucci, 
 G. A. Petersson, H. Nakatsuji, M. Caricato, X. Li, H. P. Hratchian, 
 A. F. Izmaylov, J. Bloino, G. Zheng, J. L. Sonnenberg, M. Hada, 
 M. Ehara, K. Toyota, R. Fukuda, J. Hasegawa, M. Ishida, T. Nakajima, 
 Y. Honda, O. Kitao, H. Nakai, T. Vreven, J. A. Montgomery, Jr., 
 J. E. Peralta, F. Ogliaro, M. Bearpark, J. J. Heyd, E. Brothers, 
 K. N. Kudin, V. N. Staroverov, R. Kobayashi, J. Normand, 
 K. Raghavachari, A. Rendell, J. C. Burant, S. S. Iyengar, J. Tomasi, 
 M. Cossi, N. Rega, J. M. Millam, M. Klene, J. E. Knox, J. B. Cross, 
 V. Bakken, C. Adamo, J. Jaramillo, R. Gomperts, R. E. Stratmann, 
 O. Yazyev, A. J. Austin, R. Cammi, C. Pomelli, J. W. Ochterski, 
 R. L. Martin, K. Morokuma, V. G. Zakrzewski, G. A. Voth, 
 P. Salvador, J. J. Dannenberg, S. Dapprich, A. D. Daniels, 
 O. Farkas, J. B. Foresman, J. V. Ortiz, J. Cioslowski, 
 and D. J. Fox, Gaussian, Inc., Wallingford CT, 2009.
 
 ******************************************
 Gaussian 09:  EM64L-G09RevA.02 11-Jun-2009
                22-Nov-2019 
 ******************************************
 %chk=conf23
 ------------------------------------------------------------
 #HF/6-31G* SCF=tight Test Pop=MK iop(6/33=2) iop(6/42=6) opt
 ------------------------------------------------------------
 1/18=20,19=15,38=1/1,3;
 2/9=110,12=2,17=6,18=5,40=1/2;
 3/5=1,6=6,7=1,11=9,16=1,25=1,30=1,71=1/1,2,3;
 4//1;
 5/5=2,32=2,38=5/2;
 6/7=2,8=2,9=2,10=2,15=8,20=1,28=1,33=2,42=6/1,2;
 7//1,2,3,16;
 1/18=20,19=15/3(2);
 2/9=110/2;
 99//99;
 2/9=110/2;
 3/5=1,6=6,7=1,11=9,16=1,25=1,30=1,71=1/1,2,3;
 4/5=5,16=3/1;
 5/5=2,32=2,38=5/2;
 7//1,2,3,16;
 1/18=20,19=15/3(-5);
 2/9=110/2;
 6/7=2,8=2,9=2,10=2,15=8,19=2,20=1,28=1,33=2,42=6/1,2;
 99/9=1/99;
 ---------------------
 remark line goes here
 ---------------------
 Symbolic Z-matrix:
 Charge =  0 Multiplicity = 1
 C                     3.459    -2.413     2.514 
 N                     3.905    -1.213     1.856 
 C                     3.757    -1.083     0.482 
 O                     3.045    -1.838    -0.175 
 C                     4.417     0.205    -0.106 
 C                     4.604     0.079    -1.623 
 C                     3.534     1.44      0.266 
 C                     2.293     1.759    -0.587 
 C                     1.121     0.78     -0.53 
 C                     0.577     0.574     0.856 
 C                    -0.547     1.102     1.366 
 C                    -1.48      2.062     0.683 
 C                    -2.612     1.375    -0.09 
 C                    -3.523     0.515     0.803 
 C                    -4.703    -0.19      0.072 
 C                    -5.42     -1.079     1.107 
 N                    -5.597     0.84     -0.508 
 C                    -6.899     0.588    -0.894 
 C                    -7.499     1.694    -1.723 
 O                    -7.536    -0.421    -0.616 
 C                    -4.144    -1.034    -1.118 
 O                    -4.272    -0.667    -2.289 
 N                    -3.403    -2.146    -0.776 
 C                    -2.851    -3.009    -1.791 
 N                     5.738     0.428     0.563 
 C                     6.776    -0.478     0.479 
 C                     8.095     0.056     0.97 
 O                     6.655    -1.623     0.063 
 H                     4.11     -3.241     2.22 
 H                     2.429    -2.639     2.225 
 H                     3.518    -2.259     3.594 
 H                     4.722    -0.746     2.23 
 H                     3.655    -0.094    -2.141 
 H                     5.063     0.983    -2.038 
 H                     5.251    -0.765    -1.884 
 H                     4.165     2.337     0.194 
 H                     3.243     1.389     1.323 
 H                     1.924     2.743    -0.264 
 H                     2.591     1.895    -1.633 
 H                     1.404    -0.188    -0.952 
 H                     0.333     1.153    -1.195 
 H                     1.144    -0.111     1.485 
 H                    -0.82      0.826     2.384 
 H                    -0.92      2.71     -0.002 
 H                    -1.904     2.732     1.441 
 H                    -3.202     2.159    -0.579 
 H                    -2.178     0.761    -0.887 
 H                    -3.928     1.153     1.601 
 H                    -2.906    -0.248     1.295 
 H                    -6.04     -0.48      1.783 
 H                    -4.708    -1.635     1.728 
 H                    -6.055    -1.833     0.63 
 H                    -5.12      1.45     -1.161 
 H                    -8.541     1.84     -1.426 
 H                    -7.451     1.417    -2.779 
 H                    -6.968     2.639    -1.573 
 H                    -3.448    -2.504     0.168 
 H                    -2.093    -3.647    -1.331 
 H                    -2.402    -2.414    -2.591 
 H                    -3.655    -3.625    -2.202 
 H                     6.025     1.396     0.645 
 H                     8.579    -0.703     1.592 
 H                     7.965     0.958     1.575 
 H                     8.73      0.289     0.111 
 

 GradGradGradGradGradGradGradGradGradGradGradGradGradGradGradGradGradGrad
 Berny optimization.
 Initialization pass.
                           ----------------------------
                           !    Initial Parameters    !
                           ! (Angstroms and Degrees)  !
 --------------------------                            --------------------------
 ! Name  Definition              Value          Derivative Info.                !
 --------------------------------------------------------------------------------
 ! R1    R(1,2)                  1.4394         estimate D2E/DX2                !
 ! R2    R(1,29)                 1.0935         estimate D2E/DX2                !
 ! R3    R(1,30)                 1.0934         estimate D2E/DX2                !
 ! R4    R(1,31)                 1.0925         estimate D2E/DX2                !
 ! R5    R(2,3)                  1.388          estimate D2E/DX2                !
 ! R6    R(2,32)                 1.0126         estimate D2E/DX2                !
 ! R7    R(3,4)                  1.2283         estimate D2E/DX2                !
 ! R8    R(3,5)                  1.5621         estimate D2E/DX2                !
 ! R9    R(5,6)                  1.5337         estimate D2E/DX2                !
 ! R10   R(5,7)                  1.5631         estimate D2E/DX2                !
 ! R11   R(5,25)                 1.4974         estimate D2E/DX2                !
 ! R12   R(6,33)                 1.0949         estimate D2E/DX2                !
 ! R13   R(6,34)                 1.0955         estimate D2E/DX2                !
 ! R14   R(6,35)                 1.095          estimate D2E/DX2                !
 ! R15   R(7,8)                  1.5393         estimate D2E/DX2                !
 ! R16   R(7,36)                 1.0991         estimate D2E/DX2                !
 ! R17   R(7,37)                 1.0975         estimate D2E/DX2                !
 ! R18   R(8,9)                  1.5282         estimate D2E/DX2                !
 ! R19   R(8,38)                 1.0994         estimate D2E/DX2                !
 ! R20   R(8,39)                 1.0961         estimate D2E/DX2                !
 ! R21   R(9,10)                 1.5031         estimate D2E/DX2                !
 ! R22   R(9,40)                 1.0933         estimate D2E/DX2                !
 ! R23   R(9,41)                 1.0965         estimate D2E/DX2                !
 ! R24   R(10,11)                1.3425         estimate D2E/DX2                !
 ! R25   R(10,42)                1.0892         estimate D2E/DX2                !
 ! R26   R(11,12)                1.5029         estimate D2E/DX2                !
 ! R27   R(11,43)                1.0895         estimate D2E/DX2                !
 ! R28   R(12,13)                1.5333         estimate D2E/DX2                !
 ! R29   R(12,44)                1.0967         estimate D2E/DX2                !
 ! R30   R(12,45)                1.0969         estimate D2E/DX2                !
 ! R31   R(13,14)                1.5385         estimate D2E/DX2                !
 ! R32   R(13,46)                1.0963         estimate D2E/DX2                !
 ! R33   R(13,47)                1.0957         estimate D2E/DX2                !
 ! R34   R(14,15)                1.5569         estimate D2E/DX2                !
 ! R35   R(14,48)                1.099          estimate D2E/DX2                !
 ! R36   R(14,49)                1.0977         estimate D2E/DX2                !
 ! R37   R(15,16)                1.5413         estimate D2E/DX2                !
 ! R38   R(15,17)                1.4821         estimate D2E/DX2                !
 ! R39   R(15,21)                1.5623         estimate D2E/DX2                !
 ! R40   R(16,50)                1.0955         estimate D2E/DX2                !
 ! R41   R(16,51)                1.0962         estimate D2E/DX2                !
 ! R42   R(16,52)                1.0951         estimate D2E/DX2                !
 ! R43   R(17,18)                1.3812         estimate D2E/DX2                !
 ! R44   R(17,53)                1.0129         estimate D2E/DX2                !
 ! R45   R(18,19)                1.5068         estimate D2E/DX2                !
 ! R46   R(18,20)                1.2252         estimate D2E/DX2                !
 ! R47   R(19,54)                1.0933         estimate D2E/DX2                !
 ! R48   R(19,55)                1.0928         estimate D2E/DX2                !
 ! R49   R(19,56)                1.0943         estimate D2E/DX2                !
 ! R50   R(21,22)                1.2338         estimate D2E/DX2                !
 ! R51   R(21,23)                1.3793         estimate D2E/DX2                !
 ! R52   R(23,24)                1.4421         estimate D2E/DX2                !
 ! R53   R(23,57)                1.0106         estimate D2E/DX2                !
 ! R54   R(24,58)                1.0923         estimate D2E/DX2                !
 ! R55   R(24,59)                1.0934         estimate D2E/DX2                !
 ! R56   R(24,60)                1.0931         estimate D2E/DX2                !
 ! R57   R(25,26)                1.3803         estimate D2E/DX2                !
 ! R58   R(25,61)                1.013          estimate D2E/DX2                !
 ! R59   R(26,27)                1.5053         estimate D2E/DX2                !
 ! R60   R(26,28)                1.2242         estimate D2E/DX2                !
 ! R61   R(27,62)                1.0942         estimate D2E/DX2                !
 ! R62   R(27,63)                1.0939         estimate D2E/DX2                !
 ! R63   R(27,64)                1.0933         estimate D2E/DX2                !
 ! A1    A(2,1,29)             108.8978         estimate D2E/DX2                !
 ! A2    A(2,1,30)             110.0829         estimate D2E/DX2                !
 ! A3    A(2,1,31)             108.5208         estimate D2E/DX2                !
 ! A4    A(29,1,30)            109.4653         estimate D2E/DX2                !
 ! A5    A(29,1,31)            109.8984         estimate D2E/DX2                !
 ! A6    A(30,1,31)            109.9559         estimate D2E/DX2                !
 ! A7    A(1,2,3)              119.838          estimate D2E/DX2                !
 ! A8    A(1,2,32)             117.7503         estimate D2E/DX2                !
 ! A9    A(3,2,32)             114.1059         estimate D2E/DX2                !
 ! A10   A(2,3,4)              122.2577         estimate D2E/DX2                !
 ! A11   A(2,3,5)              113.8766         estimate D2E/DX2                !
 ! A12   A(4,3,5)              123.3939         estimate D2E/DX2                !
 ! A13   A(3,5,6)              110.8604         estimate D2E/DX2                !
 ! A14   A(3,5,7)              108.856          estimate D2E/DX2                !
 ! A15   A(3,5,25)             109.1072         estimate D2E/DX2                !
 ! A16   A(6,5,7)              111.6657         estimate D2E/DX2                !
 ! A17   A(6,5,25)             110.2782         estimate D2E/DX2                !
 ! A18   A(7,5,25)             105.9235         estimate D2E/DX2                !
 ! A19   A(5,6,33)             112.0399         estimate D2E/DX2                !
 ! A20   A(5,6,34)             110.9773         estimate D2E/DX2                !
 ! A21   A(5,6,35)             111.7852         estimate D2E/DX2                !
 ! A22   A(33,6,34)            108.3193         estimate D2E/DX2                !
 ! A23   A(33,6,35)            106.1151         estimate D2E/DX2                !
 ! A24   A(34,6,35)            107.348          estimate D2E/DX2                !
 ! A25   A(5,7,8)              119.1623         estimate D2E/DX2                !
 ! A26   A(5,7,36)             107.7533         estimate D2E/DX2                !
 ! A27   A(5,7,37)             110.0152         estimate D2E/DX2                !
 ! A28   A(8,7,36)             104.9173         estimate D2E/DX2                !
 ! A29   A(8,7,37)             109.2421         estimate D2E/DX2                !
 ! A30   A(36,7,37)            104.6695         estimate D2E/DX2                !
 ! A31   A(7,8,9)              117.7023         estimate D2E/DX2                !
 ! A32   A(7,8,38)             107.0534         estimate D2E/DX2                !
 ! A33   A(7,8,39)             109.5937         estimate D2E/DX2                !
 ! A34   A(9,8,38)             107.7591         estimate D2E/DX2                !
 ! A35   A(9,8,39)             108.8805         estimate D2E/DX2                !
 ! A36   A(38,8,39)            105.1034         estimate D2E/DX2                !
 ! A37   A(8,9,10)             113.563          estimate D2E/DX2                !
 ! A38   A(8,9,40)             110.7515         estimate D2E/DX2                !
 ! A39   A(8,9,41)             108.096          estimate D2E/DX2                !
 ! A40   A(10,9,40)            109.1636         estimate D2E/DX2                !
 ! A41   A(10,9,41)            110.2277         estimate D2E/DX2                !
 ! A42   A(40,9,41)            104.6628         estimate D2E/DX2                !
 ! A43   A(9,10,11)            126.8273         estimate D2E/DX2                !
 ! A44   A(9,10,42)            115.4855         estimate D2E/DX2                !
 ! A45   A(11,10,42)           117.6333         estimate D2E/DX2                !
 ! A46   A(10,11,12)           126.7531         estimate D2E/DX2                !
 ! A47   A(10,11,43)           117.7179         estimate D2E/DX2                !
 ! A48   A(12,11,43)           115.5247         estimate D2E/DX2                !
 ! A49   A(11,12,13)           113.6563         estimate D2E/DX2                !
 ! A50   A(11,12,44)           110.1387         estimate D2E/DX2                !
 ! A51   A(11,12,45)           108.4266         estimate D2E/DX2                !
 ! A52   A(13,12,44)           109.0772         estimate D2E/DX2                !
 ! A53   A(13,12,45)           109.6747         estimate D2E/DX2                !
 ! A54   A(44,12,45)           105.5507         estimate D2E/DX2                !
 ! A55   A(12,13,14)           113.2661         estimate D2E/DX2                !
 ! A56   A(12,13,46)           107.5645         estimate D2E/DX2                !
 ! A57   A(12,13,47)           108.9875         estimate D2E/DX2                !
 ! A58   A(14,13,46)           109.8756         estimate D2E/DX2                !
 ! A59   A(14,13,47)           110.0905         estimate D2E/DX2                !
 ! A60   A(46,13,47)           106.8255         estimate D2E/DX2                !
 ! A61   A(13,14,15)           115.4293         estimate D2E/DX2                !
 ! A62   A(13,14,48)           108.3704         estimate D2E/DX2                !
 ! A63   A(13,14,49)           108.4137         estimate D2E/DX2                !
 ! A64   A(15,14,48)           108.9352         estimate D2E/DX2                !
 ! A65   A(15,14,49)           108.7669         estimate D2E/DX2                !
 ! A66   A(48,14,49)           106.5707         estimate D2E/DX2                !
 ! A67   A(14,15,16)           107.3661         estimate D2E/DX2                !
 ! A68   A(14,15,17)           109.0406         estimate D2E/DX2                !
 ! A69   A(14,15,21)           109.3341         estimate D2E/DX2                !
 ! A70   A(16,15,17)           112.5216         estimate D2E/DX2                !
 ! A71   A(16,15,21)           111.4893         estimate D2E/DX2                !
 ! A72   A(17,15,21)           107.0486         estimate D2E/DX2                !
 ! A73   A(15,16,50)           111.2389         estimate D2E/DX2                !
 ! A74   A(15,16,51)           111.765          estimate D2E/DX2                !
 ! A75   A(15,16,52)           111.9855         estimate D2E/DX2                !
 ! A76   A(50,16,51)           107.1779         estimate D2E/DX2                !
 ! A77   A(50,16,52)           108.4859         estimate D2E/DX2                !
 ! A78   A(51,16,52)           105.9112         estimate D2E/DX2                !
 ! A79   A(15,17,18)           123.4488         estimate D2E/DX2                !
 ! A80   A(15,17,53)           112.7523         estimate D2E/DX2                !
 ! A81   A(18,17,53)           111.939          estimate D2E/DX2                !
 ! A82   A(17,18,19)           113.2782         estimate D2E/DX2                !
 ! A83   A(17,18,20)           125.2358         estimate D2E/DX2                !
 ! A84   A(19,18,20)           121.4855         estimate D2E/DX2                !
 ! A85   A(18,19,54)           109.1519         estimate D2E/DX2                !
 ! A86   A(18,19,55)           109.1538         estimate D2E/DX2                !
 ! A87   A(18,19,56)           111.4215         estimate D2E/DX2                !
 ! A88   A(54,19,55)           109.7689         estimate D2E/DX2                !
 ! A89   A(54,19,56)           108.0543         estimate D2E/DX2                !
 ! A90   A(55,19,56)           109.2715         estimate D2E/DX2                !
 ! A91   A(15,21,22)           121.6743         estimate D2E/DX2                !
 ! A92   A(15,21,23)           116.0318         estimate D2E/DX2                !
 ! A93   A(22,21,23)           122.0629         estimate D2E/DX2                !
 ! A94   A(21,23,24)           120.9012         estimate D2E/DX2                !
 ! A95   A(21,23,57)           119.5554         estimate D2E/DX2                !
 ! A96   A(24,23,57)           117.5482         estimate D2E/DX2                !
 ! A97   A(23,24,58)           108.5869         estimate D2E/DX2                !
 ! A98   A(23,24,59)           110.2724         estimate D2E/DX2                !
 ! A99   A(23,24,60)           108.6837         estimate D2E/DX2                !
 ! A100  A(58,24,59)           109.9364         estimate D2E/DX2                !
 ! A101  A(58,24,60)           109.8526         estimate D2E/DX2                !
 ! A102  A(59,24,60)           109.4871         estimate D2E/DX2                !
 ! A103  A(5,25,26)            122.5782         estimate D2E/DX2                !
 ! A104  A(5,25,61)            115.367          estimate D2E/DX2                !
 ! A105  A(26,25,61)           114.7771         estimate D2E/DX2                !
 ! A106  A(25,26,27)           113.9678         estimate D2E/DX2                !
 ! A107  A(25,26,28)           124.0723         estimate D2E/DX2                !
 ! A108  A(27,26,28)           121.9532         estimate D2E/DX2                !
 ! A109  A(26,27,62)           109.0829         estimate D2E/DX2                !
 ! A110  A(26,27,63)           111.641          estimate D2E/DX2                !
 ! A111  A(26,27,64)           109.1616         estimate D2E/DX2                !
 ! A112  A(62,27,63)           108.0691         estimate D2E/DX2                !
 ! A113  A(62,27,64)           109.7272         estimate D2E/DX2                !
 ! A114  A(63,27,64)           109.1375         estimate D2E/DX2                !
 ! D1    D(29,1,2,3)            69.0909         estimate D2E/DX2                !
 ! D2    D(29,1,2,32)          -77.4016         estimate D2E/DX2                !
 ! D3    D(30,1,2,3)           -50.9212         estimate D2E/DX2                !
 ! D4    D(30,1,2,32)          162.5862         estimate D2E/DX2                !
 ! D5    D(31,1,2,3)          -171.3003         estimate D2E/DX2                !
 ! D6    D(31,1,2,32)           42.2072         estimate D2E/DX2                !
 ! D7    D(1,2,3,4)             13.5601         estimate D2E/DX2                !
 ! D8    D(1,2,3,5)           -174.0751         estimate D2E/DX2                !
 ! D9    D(32,2,3,4)           161.2008         estimate D2E/DX2                !
 ! D10   D(32,2,3,5)           -26.4344         estimate D2E/DX2                !
 ! D11   D(2,3,5,6)            162.3577         estimate D2E/DX2                !
 ! D12   D(2,3,5,7)            -74.4373         estimate D2E/DX2                !
 ! D13   D(2,3,5,25)            40.7214         estimate D2E/DX2                !
 ! D14   D(4,3,5,6)            -25.3764         estimate D2E/DX2                !
 ! D15   D(4,3,5,7)             97.8286         estimate D2E/DX2                !
 ! D16   D(4,3,5,25)          -147.0128         estimate D2E/DX2                !
 ! D17   D(3,5,6,33)            58.5431         estimate D2E/DX2                !
 ! D18   D(3,5,6,34)           179.7667         estimate D2E/DX2                !
 ! D19   D(3,5,6,35)           -60.4225         estimate D2E/DX2                !
 ! D20   D(7,5,6,33)           -63.0266         estimate D2E/DX2                !
 ! D21   D(7,5,6,34)            58.197          estimate D2E/DX2                !
 ! D22   D(7,5,6,35)           178.0078         estimate D2E/DX2                !
 ! D23   D(25,5,6,33)          179.4899         estimate D2E/DX2                !
 ! D24   D(25,5,6,34)          -59.2865         estimate D2E/DX2                !
 ! D25   D(25,5,6,35)           60.5243         estimate D2E/DX2                !
 ! D26   D(3,5,7,8)            -81.7448         estimate D2E/DX2                !
 ! D27   D(3,5,7,36)           159.0335         estimate D2E/DX2                !
 ! D28   D(3,5,7,37)            45.4788         estimate D2E/DX2                !
 ! D29   D(6,5,7,8)             40.977          estimate D2E/DX2                !
 ! D30   D(6,5,7,36)           -78.2447         estimate D2E/DX2                !
 ! D31   D(6,5,7,37)           168.2006         estimate D2E/DX2                !
 ! D32   D(25,5,7,8)           161.0526         estimate D2E/DX2                !
 ! D33   D(25,5,7,36)           41.8309         estimate D2E/DX2                !
 ! D34   D(25,5,7,37)          -71.7238         estimate D2E/DX2                !
 ! D35   D(3,5,25,26)           61.7551         estimate D2E/DX2                !
 ! D36   D(3,5,25,61)         -149.6642         estimate D2E/DX2                !
 ! D37   D(6,5,25,26)          -60.2335         estimate D2E/DX2                !
 ! D38   D(6,5,25,61)           88.3472         estimate D2E/DX2                !
 ! D39   D(7,5,25,26)          178.7889         estimate D2E/DX2                !
 ! D40   D(7,5,25,61)          -32.6304         estimate D2E/DX2                !
 ! D41   D(5,7,8,9)             67.9243         estimate D2E/DX2                !
 ! D42   D(5,7,8,38)          -170.6488         estimate D2E/DX2                !
 ! D43   D(5,7,8,39)           -57.1651         estimate D2E/DX2                !
 ! D44   D(36,7,8,9)          -171.4109         estimate D2E/DX2                !
 ! D45   D(36,7,8,38)          -49.9839         estimate D2E/DX2                !
 ! D46   D(36,7,8,39)           63.4997         estimate D2E/DX2                !
 ! D47   D(37,7,8,9)           -59.6599         estimate D2E/DX2                !
 ! D48   D(37,7,8,38)           61.767          estimate D2E/DX2                !
 ! D49   D(37,7,8,39)          175.2507         estimate D2E/DX2                !
 ! D50   D(7,8,9,10)            57.7189         estimate D2E/DX2                !
 ! D51   D(7,8,9,40)           -65.5258         estimate D2E/DX2                !
 ! D52   D(7,8,9,41)          -179.6421         estimate D2E/DX2                !
 ! D53   D(38,8,9,10)          -63.3434         estimate D2E/DX2                !
 ! D54   D(38,8,9,40)          173.4119         estimate D2E/DX2                !
 ! D55   D(38,8,9,41)           59.2956         estimate D2E/DX2                !
 ! D56   D(39,8,9,10)         -176.8397         estimate D2E/DX2                !
 ! D57   D(39,8,9,40)           59.9156         estimate D2E/DX2                !
 ! D58   D(39,8,9,41)          -54.2007         estimate D2E/DX2                !
 ! D59   D(8,9,10,11)          102.9729         estimate D2E/DX2                !
 ! D60   D(8,9,10,42)          -79.7801         estimate D2E/DX2                !
 ! D61   D(40,9,10,11)        -132.917          estimate D2E/DX2                !
 ! D62   D(40,9,10,42)          44.33           estimate D2E/DX2                !
 ! D63   D(41,9,10,11)         -18.4827         estimate D2E/DX2                !
 ! D64   D(41,9,10,42)         158.7643         estimate D2E/DX2                !
 ! D65   D(9,10,11,12)          -2.7727         estimate D2E/DX2                !
 ! D66   D(9,10,11,43)         178.0228         estimate D2E/DX2                !
 ! D67   D(42,10,11,12)       -179.9677         estimate D2E/DX2                !
 ! D68   D(42,10,11,43)          0.8279         estimate D2E/DX2                !
 ! D69   D(10,11,12,13)         90.8038         estimate D2E/DX2                !
 ! D70   D(10,11,12,44)        -31.9278         estimate D2E/DX2                !
 ! D71   D(10,11,12,45)       -146.9621         estimate D2E/DX2                !
 ! D72   D(43,11,12,13)        -89.9766         estimate D2E/DX2                !
 ! D73   D(43,11,12,44)        147.2917         estimate D2E/DX2                !
 ! D74   D(43,11,12,45)         32.2575         estimate D2E/DX2                !
 ! D75   D(11,12,13,14)         60.7046         estimate D2E/DX2                !
 ! D76   D(11,12,13,46)       -177.6762         estimate D2E/DX2                !
 ! D77   D(11,12,13,47)        -62.2087         estimate D2E/DX2                !
 ! D78   D(44,12,13,14)       -175.9819         estimate D2E/DX2                !
 ! D79   D(44,12,13,46)        -54.3627         estimate D2E/DX2                !
 ! D80   D(44,12,13,47)         61.1048         estimate D2E/DX2                !
 ! D81   D(45,12,13,14)        -60.8367         estimate D2E/DX2                !
 ! D82   D(45,12,13,46)         60.7825         estimate D2E/DX2                !
 ! D83   D(45,12,13,47)        176.25           estimate D2E/DX2                !
 ! D84   D(12,13,14,15)        179.1521         estimate D2E/DX2                !
 ! D85   D(12,13,14,48)         56.7066         estimate D2E/DX2                !
 ! D86   D(12,13,14,49)        -58.5889         estimate D2E/DX2                !
 ! D87   D(46,13,14,15)         58.8382         estimate D2E/DX2                !
 ! D88   D(46,13,14,48)        -63.6073         estimate D2E/DX2                !
 ! D89   D(46,13,14,49)       -178.9028         estimate D2E/DX2                !
 ! D90   D(47,13,14,15)        -58.5464         estimate D2E/DX2                !
 ! D91   D(47,13,14,48)        179.0081         estimate D2E/DX2                !
 ! D92   D(47,13,14,49)         63.7125         estimate D2E/DX2                !
 ! D93   D(13,14,15,16)        175.6553         estimate D2E/DX2                !
 ! D94   D(13,14,15,17)        -62.1713         estimate D2E/DX2                !
 ! D95   D(13,14,15,21)         54.5583         estimate D2E/DX2                !
 ! D96   D(48,14,15,16)        -62.2008         estimate D2E/DX2                !
 ! D97   D(48,14,15,17)         59.9726         estimate D2E/DX2                !
 ! D98   D(48,14,15,21)        176.7021         estimate D2E/DX2                !
 ! D99   D(49,14,15,16)         53.5853         estimate D2E/DX2                !
 ! D100  D(49,14,15,17)        175.7587         estimate D2E/DX2                !
 ! D101  D(49,14,15,21)        -67.5118         estimate D2E/DX2                !
 ! D102  D(14,15,16,50)         75.9141         estimate D2E/DX2                !
 ! D103  D(14,15,16,51)        -43.8454         estimate D2E/DX2                !
 ! D104  D(14,15,16,52)       -162.5006         estimate D2E/DX2                !
 ! D105  D(17,15,16,50)        -44.0672         estimate D2E/DX2                !
 ! D106  D(17,15,16,51)       -163.8266         estimate D2E/DX2                !
 ! D107  D(17,15,16,52)         77.5182         estimate D2E/DX2                !
 ! D108  D(21,15,16,50)       -164.3552         estimate D2E/DX2                !
 ! D109  D(21,15,16,51)         75.8853         estimate D2E/DX2                !
 ! D110  D(21,15,16,52)        -42.7698         estimate D2E/DX2                !
 ! D111  D(14,15,17,18)       -161.6223         estimate D2E/DX2                !
 ! D112  D(14,15,17,53)         58.6829         estimate D2E/DX2                !
 ! D113  D(16,15,17,18)        -42.6147         estimate D2E/DX2                !
 ! D114  D(16,15,17,53)        177.6906         estimate D2E/DX2                !
 ! D115  D(21,15,17,18)         80.2023         estimate D2E/DX2                !
 ! D116  D(21,15,17,53)        -59.4924         estimate D2E/DX2                !
 ! D117  D(14,15,21,22)       -105.5825         estimate D2E/DX2                !
 ! D118  D(14,15,21,23)         69.002          estimate D2E/DX2                !
 ! D119  D(16,15,21,22)        135.8575         estimate D2E/DX2                !
 ! D120  D(16,15,21,23)        -49.5581         estimate D2E/DX2                !
 ! D121  D(17,15,21,22)         12.4014         estimate D2E/DX2                !
 ! D122  D(17,15,21,23)       -173.0142         estimate D2E/DX2                !
 ! D123  D(15,17,18,19)       -167.3256         estimate D2E/DX2                !
 ! D124  D(15,17,18,20)         12.4345         estimate D2E/DX2                !
 ! D125  D(53,17,18,19)        -27.3487         estimate D2E/DX2                !
 ! D126  D(53,17,18,20)        152.4114         estimate D2E/DX2                !
 ! D127  D(17,18,19,54)       -140.3877         estimate D2E/DX2                !
 ! D128  D(17,18,19,55)         99.6352         estimate D2E/DX2                !
 ! D129  D(17,18,19,56)        -21.1341         estimate D2E/DX2                !
 ! D130  D(20,18,19,54)         39.8421         estimate D2E/DX2                !
 ! D131  D(20,18,19,55)        -80.1351         estimate D2E/DX2                !
 ! D132  D(20,18,19,56)        159.0956         estimate D2E/DX2                !
 ! D133  D(15,21,23,24)        179.2268         estimate D2E/DX2                !
 ! D134  D(15,21,23,57)         15.6861         estimate D2E/DX2                !
 ! D135  D(22,21,23,24)         -6.2117         estimate D2E/DX2                !
 ! D136  D(22,21,23,57)       -169.7524         estimate D2E/DX2                !
 ! D137  D(21,23,24,58)        164.6714         estimate D2E/DX2                !
 ! D138  D(21,23,24,59)         44.1602         estimate D2E/DX2                !
 ! D139  D(21,23,24,60)        -75.8605         estimate D2E/DX2                !
 ! D140  D(57,23,24,58)        -31.4686         estimate D2E/DX2                !
 ! D141  D(57,23,24,59)       -151.9798         estimate D2E/DX2                !
 ! D142  D(57,23,24,60)         87.9996         estimate D2E/DX2                !
 ! D143  D(5,25,26,27)         167.8675         estimate D2E/DX2                !
 ! D144  D(5,25,26,28)         -13.0582         estimate D2E/DX2                !
 ! D145  D(61,25,26,27)         19.1188         estimate D2E/DX2                !
 ! D146  D(61,25,26,28)       -161.8069         estimate D2E/DX2                !
 ! D147  D(25,26,27,62)        135.9371         estimate D2E/DX2                !
 ! D148  D(25,26,27,63)         16.5739         estimate D2E/DX2                !
 ! D149  D(25,26,27,64)       -104.1733         estimate D2E/DX2                !
 ! D150  D(28,26,27,62)        -43.1592         estimate D2E/DX2                !
 ! D151  D(28,26,27,63)       -162.5224         estimate D2E/DX2                !
 ! D152  D(28,26,27,64)         76.7305         estimate D2E/DX2                !
 --------------------------------------------------------------------------------
 Trust Radius=3.00D-01 FncErr=1.00D-07 GrdErr=1.00D-07
 Number of steps in this run= 339 maximum allowed number of steps= 384.
 GradGradGradGradGradGradGradGradGradGradGradGradGradGradGradGradGradGrad

 Stoichiometry    C20H36N4O4
 Framework group  C1[X(C20H36N4O4)]
 Deg. of freedom   186
 Full point group                 C1      NOp   1
 Largest Abelian subgroup         C1      NOp   1
 Largest concise Abelian subgroup C1      NOp   1
                         Standard orientation:                         
 ---------------------------------------------------------------------
 Center     Atomic      Atomic             Coordinates (Angstroms)
 Number     Number       Type             X           Y           Z
 ---------------------------------------------------------------------
      1          6           0       -3.857870    2.225475    2.069979
      2          7           0       -4.190639    0.987611    1.415122
      3          6           0       -3.893983    0.816398    0.069997
      4          8           0       -3.142764    1.574957   -0.537355
      5          6           0       -4.443818   -0.515077   -0.534273
      6          6           0       -4.473727   -0.448227   -2.066191
      7          6           0       -3.563402   -1.702233   -0.025525
      8          6           0       -2.229080   -2.002903   -0.731665
      9          6           0       -1.103771   -0.978759   -0.589956
     10          6           0       -0.716566   -0.704977    0.836397
     11          6           0        0.364644   -1.172191    1.480566
     12          6           0        1.396799   -2.118896    0.935603
     13          6           0        2.579996   -1.416279    0.259367
     14          6           0        3.361677   -0.492288    1.209201
     15          6           0        4.587527    0.231564    0.579029
     16          6           0        5.160418    1.182013    1.648645
     17          7           0        5.572433   -0.783006    0.135021
     18          6           0        6.898554   -0.495133   -0.122342
     19          6           0        7.620173   -1.605277   -0.841594
     20          8           0        7.467802    0.546231    0.182048
     21          6           0        4.128862    1.012546   -0.694003
     22          8           0        4.392291    0.610828   -1.830463
     23          7           0        3.318350    2.106674   -0.473678
     24          6           0        2.847508    2.912883   -1.572784
     25          7           0       -5.819704   -0.765029    0.001256
     26          6           0       -6.873350    0.097527   -0.224940
     27          6           0       -8.217829   -0.469032    0.145717
     28          8           0       -6.748251    1.231393   -0.669258
     29          1           0       -4.502062    3.017634    1.678418
     30          1           0       -2.811426    2.480379    1.881629
     31          1           0       -4.025325    2.106379    3.142999
     32          1           0       -5.026149    0.503011    1.719326
     33          1           0       -3.481785   -0.257160   -2.488561
     34          1           0       -4.855190   -1.382659   -2.492155
     35          1           0       -5.117977    0.361193   -2.425147
     36          1           0       -4.152271   -2.624469   -0.128819
     37          1           0       -3.387590   -1.604103    1.053360
     38          1           0       -1.862882   -2.960568   -0.334773
     39          1           0       -2.410109   -2.185812   -1.797118
     40          1           0       -1.373498   -0.037196   -1.075656
     41          1           0       -0.237663   -1.344117   -1.154465
     42          1           0       -1.369890   -0.020871    1.376326
     43          1           0        0.519005   -0.851371    2.510264
     44          1           0        0.934740   -2.810730    0.221043
     45          1           0        1.760989   -2.746004    1.758610
     46          1           0        3.244770   -2.193593   -0.135266
     47          1           0        2.211900   -0.846811   -0.601314
     48          1           0        3.701667   -1.086791    2.068763
     49          1           0        2.670471    0.263132    1.604798
     50          1           0        5.725633    0.630445    2.407908
     51          1           0        4.368240    1.731511    2.170399
     52          1           0        5.816134    1.942808    1.212185
     53          1           0        5.188183   -1.432646   -0.540522
     54          1           0        8.629347   -1.701387   -0.432178
     55          1           0        7.674555   -1.366581   -1.906599
     56          1           0        7.108876   -2.564062   -0.712004
     57          1           0        3.251136    2.498204    0.455575
     58          1           0        2.023821    3.537021   -1.218949
     59          1           0        2.506100    2.274258   -2.392067
     60          1           0        3.668919    3.544528   -1.920777
     61          1           0       -6.080542   -1.739851    0.089595
     62          1           0       -8.790452    0.291886    0.684536
     63          1           0       -8.121740   -1.344227    0.794816
     64          1           0       -8.750214   -0.755206   -0.765362
 ---------------------------------------------------------------------
 Rotational constants (GHZ):      0.4240852      0.0532780      0.0517060
 Standard basis: 6-31G(d) (6D, 7F)
 There are   492 symmetry adapted basis functions of A   symmetry.
 Integral buffers will be    131072 words long.
 Raffenetti 1 integral format.
 Two-electron integral symmetry is turned on.
   492 basis functions,   928 primitive gaussians,   492 cartesian basis functions
   108 alpha electrons      108 beta electrons
       nuclear repulsion energy      2705.5447820333 Hartrees.
 NAtoms=   64 NActive=   64 NUniq=   64 SFac= 7.50D-01 NAtFMM=   80 NAOKFM=F Big=T
 One-electron integrals computed using PRISM.
 NBasis=   492 RedAO= T  NBF=   492
 NBsUse=   492 1.00D-06 NBFU=   492
 Harris functional with IExCor=  205 diagonalized for initial guess.
 ExpMin= 1.61D-01 ExpMax= 5.48D+03 ExpMxC= 8.25D+02 IAcc=1 IRadAn=         1 AccDes= 0.00D+00
 HarFok:  IExCor=  205 AccDes= 0.00D+00 IRadAn=         1 IDoV= 1
 ScaDFX=  1.000000  1.000000  1.000000  1.000000
 FoFCou: FMM=F IPFlag=           0 FMFlag=      100000 FMFlg1=           1
         NFxFlg=           0 DoJE=T BraDBF=F KetDBF=T FulRan=T
         Omega=  0.000000  0.000000  1.000000  0.000000  0.000000 ICntrl=     500 IOpCl=  0
         NMat0=    1 NMatS0=    1 NMatT0=    0 NMatD0=    1 NMtDS0=    0 NMtDT0=    0
         I1Cent=           4 NGrid=           0.
 Petite list used in FoFCou.
 Initial guess orbital symmetries:
       Occupied  (A) (A) (A) (A) (A) (A) (A) (A) (A) (A) (A) (A)
                 (A) (A) (A) (A) (A) (A) (A) (A) (A) (A) (A) (A)
                 (A) (A) (A) (A) (A) (A) (A) (A) (A) (A) (A) (A)
                 (A) (A) (A) (A) (A) (A) (A) (A) (A) (A) (A) (A)
                 (A) (A) (A) (A) (A) (A) (A) (A) (A) (A) (A) (A)
                 (A) (A) (A) (A) (A) (A) (A) (A) (A) (A) (A) (A)
                 (A) (A) (A) (A) (A) (A) (A) (A) (A) (A) (A) (A)
                 (A) (A) (A) (A) (A) (A) (A) (A) (A) (A) (A) (A)
                 (A) (A) (A) (A) (A) (A) (A) (A) (A) (A) (A) (A)
       Virtual   (A) (A) (A) (A) (A) (A) (A) (A) (A) (A) (A) (A)
                 (A) (A) (A) (A) (A) (A) (A) (A) (A) (A) (A) (A)
                 (A) (A) (A) (A) (A) (A) (A) (A) (A) (A) (A) (A)
                 (A) (A) (A) (A) (A) (A) (A) (A) (A) (A) (A) (A)
                 (A) (A) (A) (A) (A) (A) (A) (A) (A) (A) (A) (A)
                 (A) (A) (A) (A) (A) (A) (A) (A) (A) (A) (A) (A)
                 (A) (A) (A) (A) (A) (A) (A) (A) (A) (A) (A) (A)
                 (A) (A) (A) (A) (A) (A) (A) (A) (A) (A) (A) (A)
                 (A) (A) (A) (A) (A) (A) (A) (A) (A) (A) (A) (A)
                 (A) (A) (A) (A) (A) (A) (A) (A) (A) (A) (A) (A)
                 (A) (A) (A) (A) (A) (A) (A) (A) (A) (A) (A) (A)
                 (A) (A) (A) (A) (A) (A) (A) (A) (A) (A) (A) (A)
                 (A) (A) (A) (A) (A) (A) (A) (A) (A) (A) (A) (A)
                 (A) (A) (A) (A) (A) (A) (A) (A) (A) (A) (A) (A)
                 (A) (A) (A) (A) (A) (A) (A) (A) (A) (A) (A) (A)
                 (A) (A) (A) (A) (A) (A) (A) (A) (A) (A) (A) (A)
                 (A) (A) (A) (A) (A) (A) (A) (A) (A) (A) (A) (A)
                 (A) (A) (A) (A) (A) (A) (A) (A) (A) (A) (A) (A)
                 (A) (A) (A) (A) (A) (A) (A) (A) (A) (A) (A) (A)
                 (A) (A) (A) (A) (A) (A) (A) (A) (A) (A) (A) (A)
                 (A) (A) (A) (A) (A) (A) (A) (A) (A) (A) (A) (A)
                 (A) (A) (A) (A) (A) (A) (A) (A) (A) (A) (A) (A)
                 (A) (A) (A) (A) (A) (A) (A) (A) (A) (A) (A) (A)
                 (A) (A) (A) (A) (A) (A) (A) (A) (A) (A) (A) (A)
                 (A) (A) (A) (A) (A) (A) (A) (A) (A) (A) (A) (A)
                 (A) (A) (A) (A) (A) (A) (A) (A) (A) (A) (A) (A)
                 (A) (A) (A) (A) (A) (A) (A) (A) (A) (A) (A) (A)
                 (A) (A) (A) (A) (A) (A) (A) (A) (A) (A) (A) (A)
                 (A) (A) (A) (A) (A) (A) (A) (A) (A) (A) (A) (A)
                 (A) (A) (A) (A) (A) (A) (A) (A) (A) (A) (A) (A)
                 (A) (A) (A) (A) (A) (A) (A) (A) (A) (A) (A) (A)
                 (A) (A) (A) (A) (A) (A) (A) (A) (A) (A) (A) (A)
 The electronic state of the initial guess is 1-A.
 Requested convergence on RMS density matrix=1.00D-08 within 128 cycles.
 Requested convergence on MAX density matrix=1.00D-06.
 Requested convergence on             energy=1.00D-06.
 No special actions if energy rises.
 Integral accuracy reduced to 1.0D-05 until final iterations.
 Initial convergence to 1.0D-05 achieved.  Increase integral accuracy.
 SCF Done:  E(RHF) =  -1295.59788370     A.U. after   14 cycles
             Convg  =    0.9540D-08             -V/T =  2.0024

 **********************************************************************

            Population analysis using the SCF density.

 **********************************************************************

 Orbital symmetries:
 BldTbl:  Degeneracy threshold= 1.00D-02
       Occupied  (A) (A) (A) (A) (A) (A) (A) (A) (A) (A) (A) (A)
                 (A) (A) (A) (A) (A) (A) (A) (A) (A) (A) (A) (A)
                 (A) (A) (A) (A) (A) (A) (A) (A) (A) (A) (A) (A)
                 (A) (A) (A) (A) (A) (A) (A) (A) (A) (A) (A) (A)
                 (A) (A) (A) (A) (A) (A) (A) (A) (A) (A) (A) (A)
                 (A) (A) (A) (A) (A) (A) (A) (A) (A) (A) (A) (A)
                 (A) (A) (A) (A) (A) (A) (A) (A) (A) (A) (A) (A)
                 (A) (A) (A) (A) (A) (A) (A) (A) (A) (A) (A) (A)
                 (A) (A) (A) (A) (A) (A) (A) (A) (A) (A) (A) (A)
       Virtual   (A) (A) (A) (A) (A) (A) (A) (A) (A) (A) (A) (A)
                 (A) (A) (A) (A) (A) (A) (A) (A) (A) (A) (A) (A)
                 (A) (A) (A) (A) (A) (A) (A) (A) (A) (A) (A) (A)
                 (A) (A) (A) (A) (A) (A) (A) (A) (A) (A) (A) (A)
                 (A) (A) (A) (A) (A) (A) (A) (A) (A) (A) (A) (A)
                 (A) (A) (A) (A) (A) (A) (A) (A) (A) (A) (A) (A)
                 (A) (A) (A) (A) (A) (A) (A) (A) (A) (A) (A) (A)
                 (A) (A) (A) (A) (A) (A) (A) (A) (A) (A) (A) (A)
                 (A) (A) (A) (A) (A) (A) (A) (A) (A) (A) (A) (A)
                 (A) (A) (A) (A) (A) (A) (A) (A) (A) (A) (A) (A)
                 (A) (A) (A) (A) (A) (A) (A) (A) (A) (A) (A) (A)
                 (A) (A) (A) (A) (A) (A) (A) (A) (A) (A) (A) (A)
                 (A) (A) (A) (A) (A) (A) (A) (A) (A) (A) (A) (A)
                 (A) (A) (A) (A) (A) (A) (A) (A) (A) (A) (A) (A)
                 (A) (A) (A) (A) (A) (A) (A) (A) (A) (A) (A) (A)
                 (A) (A) (A) (A) (A) (A) (A) (A) (A) (A) (A) (A)
                 (A) (A) (A) (A) (A) (A) (A) (A) (A) (A) (A) (A)
                 (A) (A) (A) (A) (A) (A) (A) (A) (A) (A) (A) (A)
                 (A) (A) (A) (A) (A) (A) (A) (A) (A) (A) (A) (A)
                 (A) (A) (A) (A) (A) (A) (A) (A) (A) (A) (A) (A)
                 (A) (A) (A) (A) (A) (A) (A) (A) (A) (A) (A) (A)
                 (A) (A) (A) (A) (A) (A) (A) (A) (A) (A) (A) (A)
                 (A) (A) (A) (A) (A) (A) (A) (A) (A) (A) (A) (A)
                 (A) (A) (A) (A) (A) (A) (A) (A) (A) (A) (A) (A)
                 (A) (A) (A) (A) (A) (A) (A) (A) (A) (A) (A) (A)
                 (A) (A) (A) (A) (A) (A) (A) (A) (A) (A) (A) (A)
                 (A) (A) (A) (A) (A) (A) (A) (A) (A) (A) (A) (A)
                 (A) (A) (A) (A) (A) (A) (A) (A) (A) (A) (A) (A)
                 (A) (A) (A) (A) (A) (A) (A) (A) (A) (A) (A) (A)
                 (A) (A) (A) (A) (A) (A) (A) (A) (A) (A) (A) (A)
                 (A) (A) (A) (A) (A) (A) (A) (A) (A) (A) (A) (A)
                 (A) (A) (A) (A) (A) (A) (A) (A) (A) (A) (A) (A)
 The electronic state is 1-A.
 Alpha  occ. eigenvalues --  -20.54257 -20.53063 -20.52469 -20.51670 -15.60787
 Alpha  occ. eigenvalues --  -15.58495 -15.58068 -15.57782 -11.36943 -11.35503
 Alpha  occ. eigenvalues --  -11.34893 -11.34514 -11.30518 -11.29251 -11.25462
 Alpha  occ. eigenvalues --  -11.25300 -11.25162 -11.24698 -11.23519 -11.23246
 Alpha  occ. eigenvalues --  -11.22737 -11.22679 -11.22601 -11.22413 -11.22251
 Alpha  occ. eigenvalues --  -11.22170 -11.21960 -11.21742  -1.39247  -1.37392
 Alpha  occ. eigenvalues --   -1.37236  -1.36179  -1.25061  -1.22312  -1.21997
 Alpha  occ. eigenvalues --   -1.21645  -1.10804  -1.09280  -1.06931  -1.04213
 Alpha  occ. eigenvalues --   -1.01097  -0.99172  -0.98241  -0.95368  -0.94812
 Alpha  occ. eigenvalues --   -0.94163  -0.91699  -0.87068  -0.85264  -0.82448
 Alpha  occ. eigenvalues --   -0.80944  -0.78759  -0.78524  -0.76378  -0.74999
 Alpha  occ. eigenvalues --   -0.71758  -0.70793  -0.70412  -0.68957  -0.67170
 Alpha  occ. eigenvalues --   -0.66334  -0.65664  -0.64315  -0.63732  -0.63119
 Alpha  occ. eigenvalues --   -0.62524  -0.62289  -0.61632  -0.61273  -0.60893
 Alpha  occ. eigenvalues --   -0.60708  -0.59752  -0.58965  -0.58631  -0.58336
 Alpha  occ. eigenvalues --   -0.58147  -0.57632  -0.56644  -0.55908  -0.55657
 Alpha  occ. eigenvalues --   -0.54973  -0.54534  -0.54396  -0.53924  -0.53620
 Alpha  occ. eigenvalues --   -0.53179  -0.52329  -0.52138  -0.51313  -0.51122
 Alpha  occ. eigenvalues --   -0.50892  -0.50508  -0.49703  -0.49097  -0.48331
 Alpha  occ. eigenvalues --   -0.48072  -0.46669  -0.45949  -0.44445  -0.43243
 Alpha  occ. eigenvalues --   -0.42374  -0.41696  -0.40536  -0.40107  -0.38384
 Alpha  occ. eigenvalues --   -0.38375  -0.38144  -0.33952
 Alpha virt. eigenvalues --    0.16681   0.17429   0.18372   0.19424   0.19574
 Alpha virt. eigenvalues --    0.19956   0.21098   0.22903   0.23093   0.23301
 Alpha virt. eigenvalues --    0.24879   0.25181   0.26255   0.26777   0.27268
 Alpha virt. eigenvalues --    0.27645   0.28051   0.28412   0.28669   0.29089
 Alpha virt. eigenvalues --    0.29512   0.29878   0.30968   0.31083   0.31286
 Alpha virt. eigenvalues --    0.31939   0.32289   0.32519   0.32771   0.33041
 Alpha virt. eigenvalues --    0.33482   0.33614   0.34185   0.34846   0.35023
 Alpha virt. eigenvalues --    0.35422   0.35731   0.36080   0.36821   0.36906
 Alpha virt. eigenvalues --    0.37490   0.38129   0.38936   0.39393   0.40132
 Alpha virt. eigenvalues --    0.40429   0.41214   0.41495   0.42233   0.42490
 Alpha virt. eigenvalues --    0.43598   0.44286   0.44430   0.45905   0.46089
 Alpha virt. eigenvalues --    0.47241   0.47937   0.49481   0.50756   0.52428
 Alpha virt. eigenvalues --    0.53928   0.54076   0.56039   0.57333   0.59929
 Alpha virt. eigenvalues --    0.60496   0.61455   0.62314   0.68723   0.70033
 Alpha virt. eigenvalues --    0.70812   0.71257   0.72256   0.73079   0.73789
 Alpha virt. eigenvalues --    0.74140   0.74498   0.75165   0.75764   0.76041
 Alpha virt. eigenvalues --    0.77025   0.77106   0.77463   0.77999   0.78397
 Alpha virt. eigenvalues --    0.79681   0.80022   0.80498   0.80666   0.82392
 Alpha virt. eigenvalues --    0.83437   0.83797   0.84785   0.85132   0.86307
 Alpha virt. eigenvalues --    0.86811   0.87630   0.89164   0.89753   0.89924
 Alpha virt. eigenvalues --    0.89952   0.91849   0.92177   0.92675   0.93018
 Alpha virt. eigenvalues --    0.93707   0.94914   0.96005   0.96670   0.97483
 Alpha virt. eigenvalues --    0.97717   0.97900   0.98649   0.99539   0.99928
 Alpha virt. eigenvalues --    1.00631   1.01313   1.01914   1.02662   1.03418
 Alpha virt. eigenvalues --    1.04256   1.04465   1.05018   1.05398   1.05943
 Alpha virt. eigenvalues --    1.07581   1.08264   1.09790   1.10744   1.11414
 Alpha virt. eigenvalues --    1.11804   1.12171   1.12373   1.12551   1.12955
 Alpha virt. eigenvalues --    1.13106   1.14010   1.14384   1.15152   1.15302
 Alpha virt. eigenvalues --    1.15905   1.16027   1.16258   1.16481   1.16906
 Alpha virt. eigenvalues --    1.17341   1.17760   1.18086   1.18608   1.18832
 Alpha virt. eigenvalues --    1.19365   1.19478   1.19920   1.20266   1.20803
 Alpha virt. eigenvalues --    1.21091   1.21486   1.21718   1.22101   1.22221
 Alpha virt. eigenvalues --    1.22869   1.23275   1.23854   1.24379   1.25441
 Alpha virt. eigenvalues --    1.25885   1.26757   1.27137   1.27262   1.28796
 Alpha virt. eigenvalues --    1.29208   1.29501   1.30181   1.30860   1.31378
 Alpha virt. eigenvalues --    1.31848   1.32656   1.34939   1.35081   1.35806
 Alpha virt. eigenvalues --    1.37638   1.38507   1.39403   1.40580   1.41958
 Alpha virt. eigenvalues --    1.42689   1.43535   1.43942   1.46896   1.47405
 Alpha virt. eigenvalues --    1.48904   1.49275   1.52111   1.53182   1.54079
 Alpha virt. eigenvalues --    1.55261   1.56881   1.58304   1.59276   1.60849
 Alpha virt. eigenvalues --    1.61043   1.63099   1.64362   1.66078   1.67369
 Alpha virt. eigenvalues --    1.68900   1.70830   1.72170   1.72249   1.72600
 Alpha virt. eigenvalues --    1.73350   1.74218   1.75882   1.77496   1.79195
 Alpha virt. eigenvalues --    1.79873   1.81791   1.83649   1.85074   1.86433
 Alpha virt. eigenvalues --    1.88590   1.89274   1.91583   1.92020   1.94526
 Alpha virt. eigenvalues --    1.96759   1.97898   1.99115   2.01034   2.01349
 Alpha virt. eigenvalues --    2.02653   2.04353   2.05716   2.07032   2.07529
 Alpha virt. eigenvalues --    2.07975   2.09320   2.09492   2.10088   2.11457
 Alpha virt. eigenvalues --    2.11757   2.12341   2.12967   2.14414   2.15246
 Alpha virt. eigenvalues --    2.16154   2.16400   2.16563   2.17270   2.17588
 Alpha virt. eigenvalues --    2.19255   2.19783   2.20655   2.21115   2.21805
 Alpha virt. eigenvalues --    2.23874   2.24541   2.24807   2.25210   2.25898
 Alpha virt. eigenvalues --    2.26326   2.27327   2.27854   2.28930   2.29633
 Alpha virt. eigenvalues --    2.30582   2.31069   2.31859   2.32641   2.33355
 Alpha virt. eigenvalues --    2.34603   2.35632   2.36352   2.37069   2.38037
 Alpha virt. eigenvalues --    2.38643   2.39059   2.39856   2.42383   2.44165
 Alpha virt. eigenvalues --    2.45489   2.46073   2.46689   2.48792   2.50517
 Alpha virt. eigenvalues --    2.51556   2.51695   2.52347   2.53635   2.54106
 Alpha virt. eigenvalues --    2.54522   2.55909   2.57091   2.58733   2.59628
 Alpha virt. eigenvalues --    2.60127   2.61183   2.62023   2.63035   2.63372
 Alpha virt. eigenvalues --    2.64309   2.65819   2.66858   2.67811   2.69243
 Alpha virt. eigenvalues --    2.70557   2.70816   2.72422   2.72559   2.73451
 Alpha virt. eigenvalues --    2.73927   2.75346   2.75913   2.77231   2.78663
 Alpha virt. eigenvalues --    2.79155   2.80672   2.81748   2.83081   2.84344
 Alpha virt. eigenvalues --    2.84539   2.85038   2.90254   2.91472   2.94067
 Alpha virt. eigenvalues --    2.94773   2.95341   2.96222   2.96954   3.00265
 Alpha virt. eigenvalues --    3.00754   3.01349   3.01989   3.04296   3.05620
 Alpha virt. eigenvalues --    3.08103   3.08901   3.11334   3.12224   3.13457
 Alpha virt. eigenvalues --    3.14989   3.17295   3.20564   3.24526   3.27135
 Alpha virt. eigenvalues --    3.29589   3.30826   3.36432   3.38816   3.39049
 Alpha virt. eigenvalues --    3.39708   3.40544   3.46468   3.48911   3.52898
 Alpha virt. eigenvalues --    3.54082   4.34913   4.37379   4.40618   4.45922
 Alpha virt. eigenvalues --    4.47628   4.50242   4.54035   4.55988   4.59223
 Alpha virt. eigenvalues --    4.61921   4.62962   4.65337   4.66598   4.71369
 Alpha virt. eigenvalues --    4.72142   4.73821   4.74934   4.81273   4.82807
 Alpha virt. eigenvalues --    4.87521   4.88751   4.93190   4.95459   4.99142
 Alpha virt. eigenvalues --    5.00702   5.05612   5.17298   5.17956
          Condensed to atoms (all electrons):
 Mulliken atomic charges:
              1
     1  C   -0.281204
     2  N   -0.778204
     3  C    0.804605
     4  O   -0.633609
     5  C    0.123173
     6  C   -0.487179
     7  C   -0.336512
     8  C   -0.306435
     9  C   -0.384132
    10  C   -0.173121
    11  C   -0.190067
    12  C   -0.348447
    13  C   -0.322858
    14  C   -0.291877
    15  C    0.082132
    16  C   -0.493521
    17  N   -0.795964
    18  C    0.773504
    19  C   -0.588714
    20  O   -0.620105
    21  C    0.802692
    22  O   -0.650770
    23  N   -0.797281
    24  C   -0.274001
    25  N   -0.852896
    26  C    0.755022
    27  C   -0.584579
    28  O   -0.603224
    29  H    0.182567
    30  H    0.198181
    31  H    0.164856
    32  H    0.395732
    33  H    0.194864
    34  H    0.148776
    35  H    0.219405
    36  H    0.153067
    37  H    0.198862
    38  H    0.165938
    39  H    0.168031
    40  H    0.223678
    41  H    0.170216
    42  H    0.193136
    43  H    0.171857
    44  H    0.173917
    45  H    0.163664
    46  H    0.148837
    47  H    0.189629
    48  H    0.176887
    49  H    0.173253
    50  H    0.193607
    51  H    0.138985
    52  H    0.222748
    53  H    0.398630
    54  H    0.206713
    55  H    0.212947
    56  H    0.171181
    57  H    0.392890
    58  H    0.172679
    59  H    0.206765
    60  H    0.175434
    61  H    0.386567
    62  H    0.216505
    63  H    0.171634
    64  H    0.210936
 Sum of Mulliken atomic charges =   0.00000
 Mulliken charges with hydrogens summed into heavy atoms:
              1
     1  C    0.264400
     2  N   -0.382472
     3  C    0.804605
     4  O   -0.633609
     5  C    0.123173
     6  C    0.075866
     7  C    0.015416
     8  C    0.027533
     9  C    0.009762
    10  C    0.020015
    11  C   -0.018210
    12  C   -0.010867
    13  C    0.015608
    14  C    0.058262
    15  C    0.082132
    16  C    0.061820
    17  N   -0.397334
    18  C    0.773504
    19  C    0.002127
    20  O   -0.620105
    21  C    0.802692
    22  O   -0.650770
    23  N   -0.404391
    24  C    0.280877
    25  N   -0.466329
    26  C    0.755022
    27  C    0.014496
    28  O   -0.603224
 Sum of Mulliken charges with hydrogens summed into heavy atoms =   0.00000
 DipInt: DoE/N= T F RetVal/Mat= T F Init=T NMatP=  1 IDeriv=0 Min/MaxMlt=  0  4
 Entering OneElI...
 OneElI was handed    32936476 working-precision words.
 Multipole integrals L=0 to 4 MinM= 0 MaxM= 0.
 Requested accuracy = 0.1000D-12
 PrsmSu:  NPrtUS=   1 ThrOK=F IAlg=1
 PRISM was handed    32064785 working-precision words and 10484 shell-pairs
 IPart=  0 NShTot=       10484 NBatch=          75 AvBLen=       139.8
 Electronic moments (au):
       -216.00000000         -2.54186603         -2.17002028          1.56696026
     -17686.61672495      -1677.46191932      -1099.45548043          9.93811912
         -5.61875307          7.60440488        109.62092528      -1158.89903780
       -174.32379334      -1236.14147927        216.43609408       3467.64980589
         12.62259688       -948.82077621        229.15633348       1740.18798330
   -2520361.54232376     -32407.00707388     -15691.56016091      49915.90027389
       7843.51130753      -3250.28035207       2257.44408974        742.34961111
      -1651.87695396     -96767.69790066     -69548.56998337     -10391.52791630
     -15592.54514546       8332.06871049        160.97131160
 Electronic spatial extent (au):  <R**2>=          20463.5341
 DipInt: DoE/N= F T RetVal/Mat= T F Init=T NMatP=  1 IDeriv=0 Min/MaxMlt=  0  4
 Nuclear    moments (au):
        216.00000000          0.00000000          0.00000000          0.00000000
      17551.31347573       1554.92522308        971.52669987          0.00000000
          0.00000000          0.00000000       -870.24060584       1197.89822405
        187.59567502       1298.10599473       -613.31130689      -3366.59112233
        -49.88992202        965.67718066       -225.86353577      -1766.61163431
    2457138.64355938      26681.49889973      11866.04764307     -49861.65360539
      -9570.94409781       3542.46259947      -2226.24272068       -722.92542272
       1678.31109164      85668.56832412      58678.81024938       8806.80572018
      16296.00677879      -8541.31091874       -242.89583596
 Total      moments (au):
          0.00000000         -2.54186603         -2.17002028          1.56696026
       -135.30324922       -122.53669624       -127.92878056          9.93811912
         -5.61875307          7.60440488       -760.61968056         38.99918625
         13.27188169         61.96451545       -396.87521281        101.05868356
        -37.26732515         16.85640445          3.29279771        -26.42365101
     -63222.89876438      -5725.50817415      -3825.51251784         54.24666850
      -1727.43279029        292.18224740         31.20136906         19.42418839
         26.43413768     -11099.12957653     -10869.75973399      -1584.72219612
        703.46163332       -209.24220825        -81.92452436
 Traceless Quadrup. (au):
         -6.71367388          6.05287910          0.66079478          9.93811912
         -5.61875307          7.60440488
 Charge=              0.0000 electrons
 Dipole moment (field-independent basis, Debye):
    X=             -6.4608    Y=             -5.5156    Z=              3.9828  Tot=              9.3823
 Quadrupole moment (field-independent basis, Debye-Ang):
   XX=           -181.9875   YY=           -164.8160   ZZ=           -172.0686
   XY=             13.3671   XZ=             -7.5574   YZ=             10.2282
 Traceless Quadrupole moment (field-independent basis, Debye-Ang):
   XX=             -9.0301   YY=              8.1413   ZZ=              0.8888
   XY=             13.3671   XZ=             -7.5574   YZ=             10.2282
 Octapole moment (field-independent basis, Debye-Ang**2):
  XXX=           -541.3798  YYY=             27.7581  ZZZ=              9.4464  XYY=             44.1040
  XXY=           -282.4805  XXZ=             71.9297  XZZ=            -26.5254  YZZ=             11.9977
  YYZ=              2.3437  XYZ=            -18.8073
 Hexadecapole moment (field-independent basis, Debye-Ang**3):
 XXXX=         -23812.7737 YYYY=          -2156.5008 ZZZZ=          -1440.8714 XXXY=             20.4319
 XXXZ=           -650.6340 YYYX=            110.0498 YYYZ=             11.7519 ZZZX=              7.3161
 ZZZY=              9.9564 XXYY=          -4180.4641 XXZZ=          -4094.0725 YYZZ=           -596.8823
 XXYZ=            264.9574 YYXZ=            -78.8106 ZZXY=            -30.8567
 N-N= 2.705544782033D+03 E-N=-8.441804089249D+03  KE= 1.292491486185D+03
 Entering OneElI...
 OneElI was handed    32450256 working-precision words.
 Calculate electrostatic properties
    NBasis =   492  MinDer = 0  MaxDer = 0
    NGrid  =    64  NMatD  =   1
 Requested accuracy = 0.1000D-12
 PrsmSu:  NPrtUS=   1 ThrOK=F IAlg=1
 PRISM was handed    31685605 working-precision words and  8750 shell-pairs
 IPart=  0 NShTot=      560000 NBatch=        8750 AvBLen=        64.0
 --------------------------------------------------------
       Center         ----      EFG at Nuclei      ----
                      3XX-RR        3YY-RR        3ZZ-RR
 --------------------------------------------------------
     1   Atom        0.134287     -0.155514      0.021227
     2   Atom        0.247308      0.054979     -0.302287
     3   Atom       -0.210003      0.100170      0.109833
     4   Atom       -0.790695     -0.026759      0.817454
     5   Atom       -0.244014      0.107403      0.136611
     6   Atom        0.057584      0.032386     -0.089970
     7   Atom        0.016572     -0.072651      0.056080
     8   Atom       -0.032054      0.007864      0.024190
     9   Atom       -0.011920      0.041125     -0.029205
    10   Atom        0.059380     -0.140801      0.081421
    11   Atom        0.059492     -0.133768      0.074276
    12   Atom       -0.001155     -0.011204      0.012358
    13   Atom       -0.011874      0.006202      0.005672
    14   Atom       -0.016775      0.026240     -0.009465
    15   Atom       -0.028384     -0.043927      0.072311
    16   Atom        0.038323     -0.002023     -0.036300
    17   Atom       -0.517144      0.010128      0.507015
    18   Atom        0.154243      0.229668     -0.383911
    19   Atom        0.018498     -0.035524      0.017026
    20   Atom        1.000735     -0.565768     -0.434967
    21   Atom       -0.339368     -0.050921      0.390289
    22   Atom       -0.104545      0.641839     -0.537294
    23   Atom        0.551020     -0.067756     -0.483265
    24   Atom        0.079344      0.002617     -0.081961
    25   Atom       -0.467515     -0.420044      0.887559
    26   Atom        0.236645      0.212592     -0.449237
    27   Atom       -0.026343      0.017320      0.009022
    28   Atom        1.651286     -0.841097     -0.810189
    29   Atom       -0.001046     -0.094554      0.095600
    30   Atom       -0.254736      0.114116      0.140620
    31   Atom        0.145576      0.136013     -0.281589
    32   Atom       -0.185128      0.070647      0.114481
    33   Atom       -0.217402      0.142652      0.074750
    34   Atom        0.100826     -0.178841      0.078015
    35   Atom       -0.004045     -0.087189      0.091234
    36   Atom        0.004408     -0.155549      0.151141
    37   Atom        0.131636      0.137767     -0.269403
    38   Atom        0.089869     -0.181350      0.091481
    39   Atom        0.128267      0.137913     -0.266179
    40   Atom        0.117331     -0.171654      0.054323
    41   Atom       -0.129296      0.098767      0.030529
    42   Atom       -0.012918     -0.018995      0.031913
    43   Atom        0.138148      0.116272     -0.254420
    44   Atom        0.065573     -0.025244     -0.040329
    45   Atom        0.094695      0.005506     -0.100200
    46   Atom       -0.023653     -0.073157      0.096810
    47   Atom        0.092292      0.026323     -0.118615
    48   Atom        0.098802      0.018325     -0.117128
    49   Atom       -0.025277     -0.068954      0.094231
    50   Atom        0.036761      0.029427     -0.066188
    51   Atom       -0.093259      0.042767      0.050492
    52   Atom       -0.001963     -0.066759      0.068722
    53   Atom        0.069342     -0.035586     -0.033757
    54   Atom       -0.232449      0.145044      0.087405
    55   Atom        0.151025      0.126370     -0.277395
    56   Atom        0.044669     -0.193241      0.148572
    57   Atom        0.214841      0.096556     -0.311396
    58   Atom       -0.097942      0.005863      0.092079
    59   Atom        0.109257     -0.004475     -0.104782
    60   Atom       -0.098355     -0.001192      0.099547
    61   Atom        0.118654     -0.348925      0.230271
    62   Atom        0.021369     -0.065243      0.043874
    63   Atom        0.135255     -0.135093     -0.000163
    64   Atom        0.038914      0.122846     -0.161760
 --------------------------------------------------------
                        XY            XZ            YZ
 --------------------------------------------------------
     1   Atom       -0.071975     -0.043623     -0.166003
     2   Atom       -0.597678      0.382173     -0.382518
     3   Atom        0.396565     -0.206034      0.115687
     4   Atom        0.039237      0.192037      1.211608
     5   Atom       -0.084170      0.132147     -0.010755
     6   Atom       -0.029128     -0.013904     -0.024231
     7   Atom        0.033901     -0.017784      0.051489
     8   Atom        0.018877      0.034171     -0.017519
     9   Atom       -0.044704      0.002877     -0.026399
    10   Atom       -0.215546      0.116619      0.092895
    11   Atom       -0.188544      0.111440      0.068018
    12   Atom        0.002282      0.017972      0.004739
    13   Atom       -0.023934      0.014139     -0.021990
    14   Atom       -0.045920      0.044937      0.020143
    15   Atom        0.195297      0.047696     -0.016643
    16   Atom        0.012875     -0.034383     -0.087301
    17   Atom        0.001157      0.106935     -0.692776
    18   Atom        0.052071     -0.140023      0.363124
    19   Atom        0.027704      0.017532     -0.019948
    20   Atom       -0.889341     -0.777077      0.380796
    21   Atom       -0.346660      0.024133     -0.029869
    22   Atom       -0.907340      0.532609     -0.815047
    23   Atom        0.703334     -0.111255     -0.065328
    24   Atom        0.094264     -0.100132      0.195073
    25   Atom        0.022966      0.225490      0.254076
    26   Atom        0.064887     -0.145010     -0.282243
    27   Atom       -0.034428      0.022045      0.022031
    28   Atom       -0.326182     -0.264518      0.096070
    29   Atom        0.186671     -0.095240      0.105584
    30   Atom       -0.100850      0.068433      0.007418
    31   Atom       -0.014906      0.066915      0.042144
    32   Atom       -0.238732      0.161843      0.058102
    33   Atom       -0.064938      0.151030      0.029730
    34   Atom       -0.135602     -0.058153     -0.143378
    35   Atom        0.189645     -0.084418      0.105183
    36   Atom       -0.190810     -0.023541     -0.035154
    37   Atom       -0.001506     -0.065467     -0.038164
    38   Atom        0.122329     -0.048194      0.138059
    39   Atom       -0.013628     -0.069532     -0.070412
    40   Atom        0.087246     -0.051352      0.164602
    41   Atom        0.116010      0.173504     -0.079725
    42   Atom        0.173832      0.127490     -0.144951
    43   Atom       -0.008871     -0.063609     -0.130840
    44   Atom       -0.114819     -0.119241     -0.181658
    45   Atom        0.086091     -0.107910      0.186909
    46   Atom        0.184576      0.099652     -0.113938
    47   Atom        0.069493     -0.118289      0.177192
    48   Atom        0.066872     -0.107748      0.182401
    49   Atom        0.179155      0.099455     -0.107998
    50   Atom        0.115325     -0.160850      0.150692
    51   Atom        0.161389      0.145568     -0.106494
    52   Atom       -0.185116      0.096327      0.117782
    53   Atom       -0.132574     -0.130935     -0.273686
    54   Atom        0.039790     -0.152786      0.010861
    55   Atom       -0.000233      0.024385      0.093100
    56   Atom       -0.179232      0.028417      0.042184
    57   Atom        0.051222      0.024106     -0.200451
    58   Atom        0.198384      0.105933     -0.075560
    59   Atom       -0.079766     -0.110807     -0.181891
    60   Atom       -0.191513      0.100703      0.091932
    61   Atom       -0.131468      0.023637      0.054347
    62   Atom        0.158566      0.116306     -0.152293
    63   Atom        0.034244     -0.020952      0.213624
    64   Atom       -0.061078     -0.178864     -0.097839
 --------------------------------------------------------


 ---------------------------------------------------------------------------------
              Nuclear Quadrupole in Principal Axis System
 ---------------------------------------------------------------------------------

       Atom             a.u.   MegaHertz   Gauss  10(-4) cm-1        Axes

              Baa    -0.2726   -36.582   -13.053   -12.202  0.2026  0.8394  0.5043
     1 C(13)  Bbb     0.1209    16.225     5.790     5.412  0.0107 -0.5168  0.8560
              Bcc     0.1517    20.357     7.264     6.790  0.9792 -0.1680 -0.1136
 
              Baa    -0.5458   -21.052    -7.512    -7.022 -0.0070  0.5320  0.8467
     2 N(14)  Bbb    -0.4370   -16.852    -6.013    -5.621  0.7197  0.5905 -0.3651
              Bcc     0.9828    37.904    13.525    12.643  0.6942 -0.6068  0.3871
 
              Baa    -0.5631   -75.565   -26.964   -25.206  0.7836 -0.5261  0.3304
     3 C(13)  Bbb     0.1901    25.507     9.102     8.508 -0.2116  0.2740  0.9382
              Bcc     0.3730    50.058    17.862    16.698  0.5841  0.8051 -0.1034
 
              Baa    -0.9352    67.670    24.146    22.572  0.5138  0.6783 -0.5252
     4 O(17)  Bbb    -0.7561    54.714    19.523    18.251  0.8549 -0.4563  0.2470
              Bcc     1.6913  -122.384   -43.670   -40.823  0.0721  0.5759  0.8143
 
              Baa    -0.3001   -40.268   -14.369   -13.432  0.9415  0.1871 -0.2803
     5 C(13)  Bbb     0.1054    14.137     5.045     4.716 -0.0377  0.8850  0.4640
              Bcc     0.1947    26.131     9.324     8.716  0.3349 -0.4263  0.8403
 
              Baa    -0.0970   -13.021    -4.646    -4.343  0.1267  0.2100  0.9694
     6 C(13)  Bbb     0.0203     2.724     0.972     0.909  0.5384  0.8062 -0.2451
              Bcc     0.0767    10.298     3.674     3.435  0.8331 -0.5531  0.0109
 
              Baa    -0.1028   -13.788    -4.920    -4.599 -0.3029  0.8961 -0.3244
     7 C(13)  Bbb     0.0280     3.756     1.340     1.253  0.9465  0.3227  0.0076
              Bcc     0.0748    10.033     3.580     3.347 -0.1115  0.3047  0.9459
 
              Baa    -0.0575    -7.715    -2.753    -2.574  0.8332 -0.3544 -0.4245
     8 C(13)  Bbb     0.0150     2.014     0.719     0.672  0.4324  0.8961  0.1005
              Bcc     0.0425     5.701     2.034     1.902  0.3448 -0.2673  0.8998
 
              Baa    -0.0466    -6.250    -2.230    -2.085  0.5795  0.4911  0.6503
     9 C(13)  Bbb    -0.0259    -3.476    -1.240    -1.159 -0.6719 -0.1636  0.7223
              Bcc     0.0725     9.726     3.470     3.244 -0.4612  0.8556 -0.2352
 
              Baa    -0.3275   -43.953   -15.684   -14.661  0.5333  0.7793 -0.3291
    10 C(13)  Bbb     0.1071    14.365     5.126     4.792 -0.2149  0.5011  0.8383
              Bcc     0.2205    29.588    10.558     9.869  0.8182 -0.3763  0.4347
 
              Baa    -0.2871   -38.532   -13.749   -12.853  0.5294  0.7890 -0.3117
    11 C(13)  Bbb     0.0785    10.537     3.760     3.515 -0.2798  0.5093  0.8138
              Bcc     0.2086    27.995     9.989     9.338  0.8009 -0.3436  0.4904
 
              Baa    -0.0139    -1.869    -0.667    -0.624  0.7326  0.3746 -0.5683
    12 C(13)  Bbb    -0.0116    -1.557    -0.556    -0.520 -0.3852  0.9165  0.1076
              Bcc     0.0255     3.427     1.223     1.143  0.5612  0.1401  0.8157
 
              Baa    -0.0285    -3.819    -1.363    -1.274  0.8095  0.5856  0.0420
    13 C(13)  Bbb    -0.0132    -1.777    -0.634    -0.593 -0.3720  0.4562  0.8084
              Bcc     0.0417     5.596     1.997     1.867 -0.4543  0.6700 -0.5872
 
              Baa    -0.0799   -10.719    -3.825    -3.575  0.7085  0.4149 -0.5709
    14 C(13)  Bbb     0.0233     3.121     1.114     1.041  0.3825  0.4540  0.8047
              Bcc     0.0566     7.598     2.711     2.534 -0.5931  0.7885 -0.1630
 
              Baa    -0.2382   -31.960   -11.404   -10.661 -0.6916  0.7077  0.1442
    15 C(13)  Bbb     0.0729     9.786     3.492     3.264 -0.0845 -0.2776  0.9570
              Bcc     0.1652    22.174     7.912     7.397  0.7173  0.6497  0.2518
 
              Baa    -0.1105   -14.826    -5.290    -4.945  0.1272  0.6127  0.7800
    16 C(13)  Bbb     0.0205     2.747     0.980     0.916  0.8346 -0.4910  0.2496
              Bcc     0.0900    12.080     4.310     4.029  0.5359  0.6193 -0.5739
 
              Baa    -0.5660   -21.831    -7.790    -7.282  0.8164 -0.4446 -0.3684
    17 N(14)  Bbb    -0.4335   -16.719    -5.966    -5.577  0.5746  0.6888  0.4420
              Bcc     0.9995    38.549    13.755    12.859  0.0572 -0.5726  0.8178
 
              Baa    -0.5826   -78.179   -27.896   -26.078  0.1981 -0.4106  0.8900
    18 C(13)  Bbb     0.1837    24.655     8.797     8.224  0.9787  0.1319 -0.1570
              Bcc     0.3989    53.525    19.099    17.854 -0.0529  0.9022  0.4280
 
              Baa    -0.0560    -7.514    -2.681    -2.506 -0.3962  0.8571  0.3293
    19 C(13)  Bbb     0.0197     2.649     0.945     0.884 -0.4452 -0.4930  0.7475
              Bcc     0.0363     4.865     1.736     1.623  0.8030  0.1496  0.5769
 
              Baa    -0.9709    70.254    25.069    23.434  0.3679  0.9219 -0.1216
    20 O(17)  Bbb    -0.7748    56.062    20.004    18.700  0.3869 -0.0329  0.9216
              Bcc     1.7457  -126.316   -45.073   -42.134  0.8456 -0.3861 -0.3687
 
              Baa    -0.5706   -76.572   -27.323   -25.542  0.8320  0.5548 -0.0037
    21 C(13)  Bbb     0.1736    23.292     8.311     7.769 -0.5458  0.8197  0.1738
              Bcc     0.3970    53.280    19.012    17.772  0.0994 -0.1426  0.9848
 
              Baa    -0.9656    69.873    24.932    23.307 -0.1902  0.3565  0.9147
    22 O(17)  Bbb    -0.7120    51.523    18.385    17.186  0.8401  0.5412 -0.0362
              Bcc     1.6777  -121.395   -43.317   -40.493 -0.5080  0.7616 -0.4024
 
              Baa    -0.5278   -20.358    -7.264    -6.791 -0.5502  0.8159 -0.1775
    23 N(14)  Bbb    -0.4932   -19.022    -6.787    -6.345 -0.0270  0.1951  0.9804
              Bcc     1.0210    39.380    14.052    13.136  0.8346  0.5442 -0.0854
 
              Baa    -0.2902   -38.941   -13.895   -12.989  0.3481 -0.5948  0.7246
    24 C(13)  Bbb     0.1273    17.076     6.093     5.696  0.8967 -0.0141 -0.4423
              Bcc     0.1629    21.864     7.802     7.293  0.2733  0.8037  0.5285
 
              Baa    -0.5111   -19.711    -7.034    -6.575  0.9070  0.3637 -0.2123
    25 N(14)  Bbb    -0.4596   -17.725    -6.325    -5.912 -0.3915  0.9140 -0.1069
              Bcc     0.9707    37.437    13.358    12.487  0.1552  0.1800  0.9713
 
              Baa    -0.5696   -76.428   -27.271   -25.494  0.1419  0.3256  0.9348
    26 C(13)  Bbb     0.1703    22.847     8.152     7.621  0.7905 -0.6057  0.0909
              Bcc     0.3993    53.581    19.119    17.873  0.5958  0.7261 -0.3433
 
              Baa    -0.0587    -7.873    -2.809    -2.626  0.7813  0.4723 -0.4081
    27 C(13)  Bbb     0.0187     2.513     0.897     0.838  0.5359 -0.1723  0.8265
              Bcc     0.0399     5.361     1.913     1.788 -0.3200  0.8644  0.3877
 
              Baa    -0.9264    67.032    23.919    22.359  0.0445  0.8173 -0.5745
    28 O(17)  Bbb    -0.7967    57.647    20.570    19.229  0.1625  0.5615  0.8113
              Bcc     1.7231  -124.679   -44.489   -41.588  0.9857 -0.1294 -0.1078
 
              Baa    -0.2921  -155.877   -55.621   -51.995 -0.5840  0.7354 -0.3437
    29 H(1)   Bbb     0.1365    72.811    25.981    24.287  0.4553  0.6473  0.6113
              Bcc     0.1557    83.065    29.640    27.708 -0.6720 -0.2006  0.7128
 
              Baa    -0.2913  -155.405   -55.452   -51.838  0.9579  0.2412 -0.1559
    30 H(1)   Bbb     0.1344    71.718    25.591    23.923 -0.1377  0.8621  0.4877
              Bcc     0.1568    83.687    29.862    27.915  0.2520 -0.4457  0.8590
 
              Baa    -0.2963  -158.085   -56.409   -52.732 -0.1523 -0.1011  0.9832
    31 H(1)   Bbb     0.1368    73.005    26.050    24.352  0.3826  0.9112  0.1530
              Bcc     0.1595    85.080    30.359    28.380  0.9113 -0.3995  0.1001
 
              Baa    -0.3852  -205.543   -73.343   -68.562  0.8216  0.4712 -0.3209
    32 H(1)   Bbb     0.1546    82.509    29.441    27.522  0.0081  0.5532  0.8330
              Bcc     0.2306   123.034    43.902    41.040 -0.5700  0.6870 -0.4507
 
              Baa    -0.2931  -156.404   -55.809   -52.171  0.9083  0.1617 -0.3859
    33 H(1)   Bbb     0.1385    73.917    26.375    24.656  0.4066 -0.1234  0.9052
              Bcc     0.1546    82.487    29.433    27.515 -0.0987  0.9791  0.1778
 
              Baa    -0.2975  -158.751   -56.646   -52.954  0.3473  0.8569  0.3809
    34 H(1)   Bbb     0.1418    75.636    26.989    25.229 -0.1402 -0.3542  0.9246
              Bcc     0.1558    83.116    29.658    27.724  0.9272 -0.3745 -0.0029
 
              Baa    -0.2878  -153.535   -54.785   -51.214 -0.5905  0.7341 -0.3353
    35 H(1)   Bbb     0.1392    74.285    26.507    24.779 -0.2228  0.2510  0.9420
[...]
 **** Fit       0.010138
 **** Fit       0.010134
 **** Fit       0.010098
 **** Fit       0.009978
 **** Fit       0.009744
 **** Fit       0.009380
 **** Fit       0.008874
 **** Fit       0.008209
 **** Fit       0.007341
 **** Fit       0.006173
 **** Fit       0.008089
 **** Fit       0.008230
 **** Fit       0.008457
 **** Fit       0.008683
 **** Fit       0.008852
 **** Fit       0.008923
 **** Fit       0.008872
 **** Fit       0.008684
 **** Fit       0.008349
 **** Fit       0.007860
 **** Fit       0.007206
 **** Fit       0.006359
 **** Fit       0.005258
 **** Fit       0.006362
 **** Fit       0.006860
 **** Fit       0.007292
 **** Fit       0.007624
 **** Fit       0.007830
 **** Fit       0.007892
 **** Fit       0.007798
 **** Fit       0.007543
 **** Fit       0.007121
 **** Fit       0.006529
 **** Fit       0.005754
 **** Fit       0.004769
 **** Fit       0.003515
 **** Fit       0.004693
 **** Fit       0.005381
 **** Fit       0.005965
 **** Fit       0.006424
 **** Fit       0.006744
 **** Fit       0.006910
 **** Fit       0.006915
 **** Fit       0.006754
 **** Fit       0.006422
 **** Fit       0.005920
 **** Fit       0.005246
 **** Fit       0.004391
 **** Fit       0.003335
 **** Fit       0.002038
 **** Fit       0.004172
 **** Fit       0.004833
 **** Fit       0.005360
 **** Fit       0.005738
 **** Fit       0.005956
 **** Fit       0.006007
 **** Fit       0.005886
 **** Fit       0.005590
 **** Fit       0.005121
 **** Fit       0.004480
 **** Fit       0.003668
 **** Fit       0.002683
 **** Fit       0.001514
 **** Fit       0.003386
 **** Fit       0.004044
 **** Fit       0.004559
 **** Fit       0.004913
 **** Fit       0.005091
 **** Fit       0.005085
 **** Fit       0.004891
 **** Fit       0.004508
 **** Fit       0.003941
 **** Fit       0.003196
 **** Fit       0.002284
 **** Fit       0.001220
 **** Fit       0.003474
 **** Fit       0.003911
 **** Fit       0.004172
 **** Fit       0.004239
 **** Fit       0.004104
 **** Fit       0.003765
 **** Fit       0.003227
 **** Fit       0.002505
 **** Fit       0.001625
 **** Fit       0.003283
 **** Fit       0.003419
 **** Fit       0.003352
 **** Fit       0.003079
 **** Fit       0.002605
 **** Fit       0.001954
 **** Fit      -0.006427
 **** Fit      -0.008156
 **** Fit      -0.003652
 **** Fit      -0.005159
 **** Fit      -0.006713
 **** Fit      -0.008241
 **** Fit      -0.009594
 **** Fit      -0.002318
 **** Fit      -0.003630
 **** Fit      -0.005003
 **** Fit      -0.006432
 **** Fit      -0.007886
 **** Fit      -0.009326
 **** Fit      -0.010751
 **** Fit      -0.001114
 **** Fit      -0.002285
 **** Fit      -0.003520
 **** Fit      -0.004837
 **** Fit      -0.006234
 **** Fit      -0.007693
 **** Fit      -0.009218
 **** Fit      -0.010894
 **** Fit      -0.013002
 **** Fit      -0.001683
 **** Fit      -0.002768
 **** Fit      -0.003962
 **** Fit      -0.005275
 **** Fit      -0.006702
 **** Fit      -0.008240
 **** Fit      -0.009944
 **** Fit      -0.012016
 **** Fit      -0.014936
 **** Fit      -0.019673
 **** Fit      -0.001504
 **** Fit      -0.002331
 **** Fit      -0.003303
 **** Fit      -0.004428
 **** Fit      -0.005711
 **** Fit      -0.007153
 **** Fit      -0.008777
 **** Fit      -0.010688
 **** Fit      -0.013164
 **** Fit      -0.016751
 **** Fit      -0.022360
 **** Fit      -0.002321
 **** Fit      -0.002913
 **** Fit      -0.003740
 **** Fit      -0.004792
 **** Fit      -0.006074
 **** Fit      -0.007597
 **** Fit      -0.009416
 **** Fit      -0.011700
 **** Fit      -0.014817
 **** Fit      -0.019385
 **** Fit      -0.003713
 **** Fit      -0.003895
 **** Fit      -0.004454
 **** Fit      -0.005353
 **** Fit      -0.006581
 **** Fit      -0.008160
 **** Fit      -0.010171
 **** Fit      -0.012823
 **** Fit      -0.016499
 **** Fit      -0.021661
 **** Fit      -0.005950
 **** Fit      -0.005552
 **** Fit      -0.005809
 **** Fit      -0.006628
 **** Fit      -0.007983
 **** Fit      -0.009914
 **** Fit      -0.012579
 **** Fit      -0.016248
 **** Fit      -0.021084
 **** Fit      -0.026565
 **** Fit      -0.016481
 **** Fit      -0.012136
 **** Fit      -0.009224
 **** Fit      -0.007842
 **** Fit      -0.007771
 **** Fit      -0.008819
 **** Fit      -0.010927
 **** Fit      -0.014167
 **** Fit      -0.018414
 **** Fit      -0.022430
 **** Fit      -0.023723
 **** Fit      -0.021140
 **** Fit      -0.015007
 **** Fit      -0.011321
 **** Fit      -0.010272
 **** Fit      -0.012141
 **** Fit      -0.015881
 **** Fit      -0.017842
 **** Fit      -0.013523
 **** Fit      -0.014624
 **** Fit      -0.009488
 **** Fit      -0.005602
 **** Fit      -0.002622
 **** Fit      -0.021361
 **** Fit      -0.016357
 **** Fit      -0.011156
 **** Fit      -0.007235
 **** Fit      -0.004249
 **** Fit      -0.001920
 **** Fit      -0.000021
 **** Fit      -0.023234
 **** Fit      -0.016836
 **** Fit      -0.011973
 **** Fit      -0.008246
 **** Fit      -0.005377
 **** Fit      -0.003137
 **** Fit      -0.001338
 **** Fit       0.000183
 **** Fit      -0.023144
 **** Fit      -0.016495
 **** Fit      -0.012107
 **** Fit      -0.008669
 **** Fit      -0.005982
 **** Fit      -0.003867
 **** Fit      -0.002174
 **** Fit      -0.000771
 **** Fit       0.000469
 **** Fit      -0.028820
 **** Fit      -0.022034
 **** Fit      -0.015746
 **** Fit      -0.011753
 **** Fit      -0.008577
 **** Fit      -0.006072
 **** Fit      -0.004095
 **** Fit      -0.002518
 **** Fit      -0.001222
 **** Fit      -0.000099
 **** Fit      -0.033202
 **** Fit      -0.026569
 **** Fit      -0.020679
 **** Fit      -0.014908
 **** Fit      -0.011261
 **** Fit      -0.008331
 **** Fit      -0.006008
 **** Fit      -0.004177
 **** Fit      -0.002723
 **** Fit      -0.001542
 **** Fit      -0.000533
 **** Fit      -0.030507
 **** Fit      -0.024575
 **** Fit      -0.019347
 **** Fit      -0.014188
 **** Fit      -0.010885
 **** Fit      -0.008209
 **** Fit      -0.006079
 **** Fit      -0.004401
 **** Fit      -0.003080
 **** Fit      -0.002023
 **** Fit      -0.001145
 **** Fit      -0.028324
 **** Fit      -0.022859
 **** Fit      -0.018171
 **** Fit      -0.013686
 **** Fit      -0.010513
 **** Fit      -0.007973
 **** Fit      -0.005985
 **** Fit      -0.004457
 **** Fit      -0.003292
 **** Fit      -0.002400
 **** Fit      -0.027763
 **** Fit      -0.022176
 **** Fit      -0.017550
 **** Fit      -0.013426
 **** Fit      -0.010373
 **** Fit      -0.007974
 **** Fit      -0.006151
 **** Fit      -0.004813
 **** Fit      -0.003867
 **** Fit      -0.003242
 **** Fit      -0.027276
 **** Fit      -0.021759
 **** Fit      -0.017194
 **** Fit      -0.013374
 **** Fit      -0.010339
 **** Fit      -0.008061
 **** Fit      -0.006466
 **** Fit      -0.005465
 **** Fit      -0.004992
 **** Fit      -0.026817
 **** Fit      -0.021766
 **** Fit      -0.017195
 **** Fit      -0.013455
 **** Fit      -0.010326
 **** Fit      -0.008295
 **** Fit      -0.007351
 **** Fit      -0.021692
 **** Fit      -0.017493
 **** Fit      -0.013559
 **** Fit      -0.010599
 **** Fit      -0.010309
 **** Fit      -0.017295
 **** Fit      -0.013537
 **** Fit       0.031242
 **** Fit       0.032642
 **** Fit       0.029407
 **** Fit       0.033638
 **** Fit       0.032001
 **** Fit       0.030493
 **** Fit       0.034143
 **** Fit       0.032869
 **** Fit       0.031510
 **** Fit       0.030096
 **** Fit       0.028822
 **** Fit       0.034533
 **** Fit       0.033591
 **** Fit       0.032532
 **** Fit       0.031277
 **** Fit       0.029863
 **** Fit       0.028476
 **** Fit       0.034672
 **** Fit       0.034047
 **** Fit       0.033328
 **** Fit       0.032421
 **** Fit       0.031252
 **** Fit       0.029806
 **** Fit       0.028217
 **** Fit       0.033990
 **** Fit       0.033556
 **** Fit       0.032999
 **** Fit       0.032246
 **** Fit       0.031205
 **** Fit       0.029791
 **** Fit       0.033501
 **** Fit       0.033195
 **** Fit       0.032825
 **** Fit       0.032317
 **** Fit       0.031565
 **** Fit       0.032852
 **** Fit       0.032580
 **** Fit       0.032354
 **** Fit       0.032086
 **** Fit       0.031689
 **** Fit       0.032192
 **** Fit       0.031766
 **** Fit       0.031589
 **** Fit       0.031511
 **** Fit       0.031450
 **** Fit       0.030547
 **** Fit       0.030413
 **** Fit       0.030497
 **** Fit       0.028830
 **** Fit       0.029031
 **** Fit       0.013272
 **** Fit       0.012809
 **** Fit       0.012988
 **** Fit       0.013637
 **** Fit       0.012412
 **** Fit       0.011708
 **** Fit       0.011561
 **** Fit       0.011778
 **** Fit       0.012226
 **** Fit       0.012867
 **** Fit       0.012509
 **** Fit       0.011041
 **** Fit       0.010319
 **** Fit       0.010153
 **** Fit       0.010343
 **** Fit       0.010734
 **** Fit       0.011235
 **** Fit       0.011824
 **** Fit       0.012530
 **** Fit       0.010317
 **** Fit       0.008973
 **** Fit       0.008429
 **** Fit       0.008437
 **** Fit       0.008775
 **** Fit       0.009282
 **** Fit       0.009861
 **** Fit       0.010467
 **** Fit       0.011105
 **** Fit       0.011817
 **** Fit       0.007320
 **** Fit       0.006257
 **** Fit       0.006002
 **** Fit       0.006265
 **** Fit       0.006819
 **** Fit       0.007508
 **** Fit       0.008233
 **** Fit       0.008946
 **** Fit       0.009637
 **** Fit       0.010325
 **** Fit       0.011060
 **** Fit       0.011910
 **** Fit       0.004165
 **** Fit       0.002880
 **** Fit       0.002686
 **** Fit       0.003157
 **** Fit       0.003983
 **** Fit       0.004959
 **** Fit       0.005959
 **** Fit       0.006914
 **** Fit       0.007799
 **** Fit       0.008623
 **** Fit       0.009417
 **** Fit       0.010242
 **** Fit       0.011177
 **** Fit      -0.002214
 **** Fit      -0.002106
 **** Fit      -0.001206
 **** Fit       0.000080
 **** Fit       0.001499
 **** Fit       0.002905
 **** Fit       0.004218
 **** Fit       0.005407
 **** Fit       0.006474
 **** Fit       0.007444
 **** Fit       0.008363
 **** Fit       0.009299
 **** Fit       0.010344
 **** Fit      -0.006982
 **** Fit      -0.004792
 **** Fit      -0.002621
 **** Fit      -0.000601
 **** Fit       0.001213
 **** Fit       0.002810
 **** Fit       0.004207
 **** Fit       0.005441
 **** Fit       0.006565
 **** Fit       0.007650
 **** Fit       0.008793
 **** Fit      -0.009427
 **** Fit      -0.006187
 **** Fit      -0.003399
 **** Fit      -0.001027
 **** Fit       0.000983
 **** Fit       0.002700
 **** Fit       0.004202
 **** Fit       0.005580
 **** Fit       0.006947
 **** Fit      -0.012998
 **** Fit      -0.008700
 **** Fit      -0.005225
 **** Fit      -0.002394
 **** Fit      -0.000054
 **** Fit       0.001937
 **** Fit       0.003720
 **** Fit       0.005459
 **** Fit      -0.015828
 **** Fit      -0.010681
 **** Fit      -0.006675
 **** Fit      -0.003481
 **** Fit      -0.000844
 **** Fit       0.001457
 **** Fit      -0.013445
 **** Fit      -0.008495
 **** Fit      -0.004640
 **** Fit      -0.001439
 **** Fit       0.019581
 **** Fit       0.020695
 **** Fit       0.019615
 **** Fit       0.018553
 **** Fit       0.018574
 **** Fit       0.019584
 **** Fit       0.020653
 **** Fit       0.021920
 **** Fit       0.021018
 **** Fit       0.019714
 **** Fit       0.018417
 **** Fit       0.017570
 **** Fit       0.017340
 **** Fit       0.017679
 **** Fit       0.018485
 **** Fit       0.019609
 **** Fit       0.020818
 **** Fit       0.021790
 **** Fit       0.022204
 **** Fit       0.023275
 **** Fit       0.022484
 **** Fit       0.021343
 **** Fit       0.019929
 **** Fit       0.018492
 **** Fit       0.017347
 **** Fit       0.016661
 **** Fit       0.016410
 **** Fit       0.016510
 **** Fit       0.016915
 **** Fit       0.017602
 **** Fit       0.018535
 **** Fit       0.019655
 **** Fit       0.020877
 **** Fit       0.022066
 **** Fit       0.023041
 **** Fit       0.023613
 **** Fit       0.023680
 **** Fit       0.024778
 **** Fit       0.024038
 **** Fit       0.023041
 **** Fit       0.021692
 **** Fit       0.020050
 **** Fit       0.018395
 **** Fit       0.017053
 **** Fit       0.016594
 **** Fit       0.017321
 **** Fit       0.018246
 **** Fit       0.019341
 **** Fit       0.020573
 **** Fit       0.021887
 **** Fit       0.023186
 **** Fit       0.024322
 **** Fit       0.025120
 **** Fit       0.025445
 **** Fit       0.025289
 **** Fit       0.026434
 **** Fit       0.025720
 **** Fit       0.024924
 **** Fit       0.023753
 **** Fit       0.022040
 **** Fit       0.019987
 **** Fit       0.017679
 **** Fit       0.018703
 **** Fit       0.019887
 **** Fit       0.021221
 **** Fit       0.022676
 **** Fit       0.024182
 **** Fit       0.025611
 **** Fit       0.026772
 **** Fit       0.027459
 **** Fit       0.027550
 **** Fit       0.027121
 **** Fit       0.028185
 **** Fit       0.027470
 **** Fit       0.027054
 **** Fit       0.026379
 **** Fit       0.024889
 **** Fit       0.019338
 **** Fit       0.020586
 **** Fit       0.022011
 **** Fit       0.023612
 **** Fit       0.025348
 **** Fit       0.027116
 **** Fit       0.028732
 **** Fit       0.029931
 **** Fit       0.030440
 **** Fit       0.030138
 **** Fit       0.029224
 **** Fit       0.022052
 **** Fit       0.023762
 **** Fit       0.025753
 **** Fit       0.027988
 **** Fit       0.030337
 **** Fit       0.032530
 **** Fit       0.034125
 **** Fit       0.026103
 **** Fit       0.028669
 **** Fit       0.031686
 **** Fit       0.031859
 **** Fit       0.017164
 **** Fit       0.018417
 **** Fit       0.014353
 **** Fit       0.015266
 **** Fit       0.016273
 **** Fit       0.017376
 **** Fit       0.018612
 **** Fit       0.020062
 **** Fit       0.021861
 **** Fit       0.012794
 **** Fit       0.013699
 **** Fit       0.014691
 **** Fit       0.015734
 **** Fit       0.016828
 **** Fit       0.018007
 **** Fit       0.019338
 **** Fit       0.020930
 **** Fit       0.022956
 **** Fit       0.025687
 **** Fit       0.012043
 **** Fit       0.013073
 **** Fit       0.014135
 **** Fit       0.015209
 **** Fit       0.016298
 **** Fit       0.017430
 **** Fit       0.018660
 **** Fit       0.020073
 **** Fit       0.021803
 **** Fit       0.024055
 **** Fit       0.027160
 **** Fit       0.010733
 **** Fit       0.011898
 **** Fit       0.013058
 **** Fit       0.014195
 **** Fit       0.015312
 **** Fit       0.016428
 **** Fit       0.017581
 **** Fit       0.018833
 **** Fit       0.020276
 **** Fit       0.022048
 **** Fit       0.024361
 **** Fit       0.027555
 **** Fit       0.009193
 **** Fit       0.010606
 **** Fit       0.011954
 **** Fit       0.013233
 **** Fit       0.014453
 **** Fit       0.015638
 **** Fit       0.016823
 **** Fit       0.018066
 **** Fit       0.019450
 **** Fit       0.021096
 **** Fit       0.023183
 **** Fit       0.025985
 **** Fit       0.029933
 **** Fit       0.006315
 **** Fit       0.008200
 **** Fit       0.009896
 **** Fit       0.011442
 **** Fit       0.012865
 **** Fit       0.014193
 **** Fit       0.015464
 **** Fit       0.016727
 **** Fit       0.018051
 **** Fit       0.019533
 **** Fit       0.021310
 **** Fit       0.023567
 **** Fit       0.026550
 **** Fit       0.004929
 **** Fit       0.007204
 **** Fit       0.009156
 **** Fit       0.010875
 **** Fit       0.012418
 **** Fit       0.013833
 **** Fit       0.015168
 **** Fit       0.016483
 **** Fit       0.017856
 **** Fit       0.019384
 **** Fit       0.021185
 **** Fit       0.023378
 **** Fit       0.003320
 **** Fit       0.006142
 **** Fit       0.008457
 **** Fit       0.010426
 **** Fit       0.012146
 **** Fit       0.013694
 **** Fit       0.015141
 **** Fit       0.016569
 **** Fit       0.018068
 **** Fit       0.019719
 **** Fit       0.021534
 **** Fit       0.001763
 **** Fit       0.005115
 **** Fit       0.007773
 **** Fit       0.009965
 **** Fit       0.011831
 **** Fit       0.013472
 **** Fit       0.014977
 **** Fit       0.016423
 **** Fit       0.017838
 **** Fit       0.019099
 **** Fit       0.002290
 **** Fit       0.005771
 **** Fit       0.008501
 **** Fit       0.010704
 **** Fit       0.012527
 **** Fit       0.014061
 **** Fit       0.015306
 **** Fit       0.001114
 **** Fit       0.005239
 **** Fit       0.008389
 **** Fit       0.010712
 **** Fit       0.012267
 **** Fit       0.005106
 **** Fit       0.008462
 -----------------------------------------------------------------
 Leave Link  602 at Fri Nov 22 10:02:18 2019, MaxMem=   33554432 cpu:       5.5

 Test job not archived.
 1\1\GINC-MOSURA\FOpt\RHF\6-31G(d)\C20H36N4O4\MARIE\22-Nov-2019\0\\#HF/
 6-31G* SCF=tight Test Pop=MK iop(6/33=2) iop(6/42=6) opt\\remark line 
 goes here\\0,1\C,3.6848562848,-2.9636232057,0.9695262127\N,4.031304552
 3,-1.5572557213,0.9379805138\C,4.3296673506,-0.9616221528,-0.239605297
 \O,4.1092243157,-1.4789269275,-1.2996061338\C,4.8465800191,0.486682073
 7,-0.1617985914\C,5.5623236326,0.8465613871,-1.4676562585\C,3.67130070
 24,1.4580627798,0.1293442129\C,2.5070422507,1.5431795016,-0.873666034\
 C,1.3963524429,0.4789618076,-0.771671341\C,0.7321318472,0.4107775882,0
 .5828471967\C,-0.4140665926,0.9631433761,0.9479099114\C,-1.3414775391,
 1.799624597,0.0993224292\C,-2.586534631,1.048929594,-0.4072996616\C,-3
 .4742576313,0.5359904924,0.7339557167\C,-4.8481090049,-0.081007767,0.3
 665714021\C,-5.5033346642,-0.5669930722,1.6697858719\N,-5.6767082736,0
 .955100011,-0.2350164579\C,-6.8895547031,0.6654509746,-0.7890798232\C,
 -7.4487503259,1.7387660733,-1.6954261858\O,-7.4749371397,-0.3600980908
 ,-0.577629122\C,-4.6229009591,-1.1928051422,-0.6838647266\O,-4.5248924
 669,-0.914113476,-1.8489191797\N,-4.4416188118,-2.4507584229,-0.228859
 4174\C,-4.2766012943,-3.5470597117,-1.1622530147\N,5.7541485695,0.6456
 229631,0.9844550008\C,6.911642441,-0.0580217753,1.1368192358\C,7.86742
 3738,0.4921107257,2.1745374491\O,7.1538016022,-1.0479380838,0.50627015
 62\H,4.5237261677,-3.5912452153,0.6888956171\H,2.870370529,-3.15399166
 45,0.2866834388\H,3.3685422153,-3.2193380069,1.9726185567\H,4.45493329
 21,-1.1746118412,1.750650284\H,4.9128381979,0.7128992432,-2.3189696865
 \H,5.8863117778,1.8826905702,-1.4277915048\H,6.4259091945,0.2129430793
 ,-1.6104434986\H,4.1181359569,2.4488215428,0.1864624762\H,3.2836649302
 ,1.2428896009,1.119631561\H,2.0425305364,2.5137648739,-0.7231974496\H,
 2.8903795444,1.546602183,-1.8878604927\H,1.7937720324,-0.4962563752,-1
 .0209501224\H,0.6627966181,0.7067825561,-1.536968021\H,1.2633169404,-0
 .1606845351,1.3268319892\H,-0.7372481075,0.8024491277,1.9646742285\H,-
 0.8111217189,2.1949886936,-0.7592143989\H,-1.6606999693,2.6622702688,0
 .6819418235\H,-3.1395195603,1.7245929374,-1.0540673025\H,-2.2755005934
 ,0.2237550696,-1.03522103\H,-3.6764612288,1.3491355152,1.4277250028\H,
 -2.9250722097,-0.2160803181,1.2892094015\H,-5.711955023,0.2931727352,2
 .2944571572\H,-4.8359087264,-1.2177163316,2.2262869917\H,-6.4344119305
 ,-1.0801364884,1.4812495703\H,-5.1783068535,1.6880067157,-0.6854421584
 \H,-8.5178877812,1.6086762278,-1.779044335\H,-7.0060617165,1.625388005
 2,-2.6804332622\H,-7.2269162808,2.7359780577,-1.3321880078\H,-4.762421
 1062,-2.674752363,0.6826370044\H,-4.0245586709,-4.4397037409,-0.604851
 8629\H,-3.4737969228,-3.3236281634,-1.8490913275\H,-5.1789845079,-3.72
 70222045,-1.7358614003\H,5.7050499862,1.5237411185,1.4514941706\H,8.52
 89376807,-0.2991428771,2.4956723648\H,7.3488043968,0.9068654491,3.0317
 992467\H,8.4647571993,1.2801561583,1.7257009112\\Version=EM64L-G09RevA
 .02\State=1-A\HF=-1295.6220898\RMSD=5.470e-09\RMSF=2.154e-06\Dipole=0.
 8859653,1.8701301,2.5301718\Quadrupole=-16.9034342,13.3585372,3.544897
 ,11.5818894,11.3552575,-6.8826339\PG=C01 [X(C20H36N4O4)]\\@


 ROSE IS A RED
 TY COBB IS BLUE
 'CAUSE PETE JUST HIT
 NO. 4592.
 Job cpu time:  0 days  3 hours  7 minutes  9.4 seconds.
 File lengths (MBytes):  RWF=    156 Int=      0 D2E=      0 Chk=     17 Scr=      1
 Normal termination of Gaussian 09 at Fri Nov 22 10:02:18 2019.
