 Entering Gaussian System, Link 0=g09
 Input=5.gau
 Output=5.log
 Initial command:
 /home/marie/Utilities//g09/l1.exe /tmp/g09/Gau-3953.inp -scrdir=/tmp/g09/
 Entering Link 1 = /home/marie/Utilities//g09/l1.exe PID=      3965.
  
 Copyright (c) 1988,1990,1992,1993,1995,1998,2003,2009, Gaussian, Inc.
                  All Rights Reserved.
  
 This is part of the Gaussian(R) 09 program.  It is based on
 the Gaussian(R) 03 system (copyright 2003, Gaussian, Inc.),
 the Gaussian(R) 98 system (copyright 1998, Gaussian, Inc.),
 the Gaussian(R) 94 system (copyright 1995, Gaussian, Inc.),
 the Gaussian 92(TM) system (copyright 1992, Gaussian, Inc.),
 the Gaussian 90(TM) system (copyright 1990, Gaussian, Inc.),
 the Gaussian 88(TM) system (copyright 1988, Gaussian, Inc.),
 the Gaussian 86(TM) system (copyright 1986, Carnegie Mellon
 University), and the Gaussian 82(TM) system (copyright 1983,
 Carnegie Mellon University). Gaussian is a federally registered
 trademark of Gaussian, Inc.
  
 This software contains proprietary and confidential information,
 including trade secrets, belonging to Gaussian, Inc.
  
 This software is provided under written license and may be
 used, copied, transmitted, or stored only in accord with that
 written license.
  
 The following legend is applicable only to US Government
 contracts under FAR:
  
                    RESTRICTED RIGHTS LEGEND
  
 Use, reproduction and disclosure by the US Government is
 subject to restrictions as set forth in subparagraphs (a)
 and (c) of the Commercial Computer Software - Restricted
 Rights clause in FAR 52.227-19.
  
 Gaussian, Inc.
 340 Quinnipiac St., Bldg. 40, Wallingford CT 06492
  
  
 ---------------------------------------------------------------
 Warning -- This program may not be used in any manner that
 competes with the business of Gaussian, Inc. or will provide
 assistance to any competitor of Gaussian, Inc.  The licensee
 of this program is prohibited from giving any competitor of
 Gaussian, Inc. access to this program.  By using this program,
 the user acknowledges that Gaussian, Inc. is engaged in the
 business of creating and licensing software in the field of
 computational chemistry and represents and warrants to the
 licensee that it is not a competitor of Gaussian, Inc. and that
 it will not use this program in any manner prohibited above.
 ---------------------------------------------------------------
  

 Cite this work as:
 Gaussian 09, Revision A.02,
 M. J. Frisch, G. W. Trucks, H. B. Schlegel, G. E. Scuseria, 
 M. A. Robb, J. R. Cheeseman, G. Scalmani, V. Barone, B. Mennucci, 
 G. A. Petersson, H. Nakatsuji, M. Caricato, X. Li, H. P. Hratchian, 
 A. F. Izmaylov, J. Bloino, G. Zheng, J. L. Sonnenberg, M. Hada, 
 M. Ehara, K. Toyota, R. Fukuda, J. Hasegawa, M. Ishida, T. Nakajima, 
 Y. Honda, O. Kitao, H. Nakai, T. Vreven, J. A. Montgomery, Jr., 
 J. E. Peralta, F. Ogliaro, M. Bearpark, J. J. Heyd, E. Brothers, 
 K. N. Kudin, V. N. Staroverov, R. Kobayashi, J. Normand, 
 K. Raghavachari, A. Rendell, J. C. Burant, S. S. Iyengar, J. Tomasi, 
 M. Cossi, N. Rega, J. M. Millam, M. Klene, J. E. Knox, J. B. Cross, 
 V. Bakken, C. Adamo, J. Jaramillo, R. Gomperts, R. E. Stratmann, 
 O. Yazyev, A. J. Austin, R. Cammi, C. Pomelli, J. W. Ochterski, 
 R. L. Martin, K. Morokuma, V. G. Zakrzewski, G. A. Voth, 
 P. Salvador, J. J. Dannenberg, S. Dapprich, A. D. Daniels, 
 O. Farkas, J. B. Foresman, J. V. Ortiz, J. Cioslowski, 
 and D. J. Fox, Gaussian, Inc., Wallingford CT, 2009.
 
 ******************************************
 Gaussian 09:  EM64L-G09RevA.02 11-Jun-2009
                21-Nov-2019 
 ******************************************
 %chk=conf5
 ------------------------------------------------------------
 #HF/6-31G* SCF=tight Test Pop=MK iop(6/33=2) iop(6/42=6) opt
 ------------------------------------------------------------
 1/18=20,19=15,38=1/1,3;
 2/9=110,12=2,17=6,18=5,40=1/2;
 3/5=1,6=6,7=1,11=9,16=1,25=1,30=1,71=1/1,2,3;
 4//1;
 5/5=2,32=2,38=5/2;
 6/7=2,8=2,9=2,10=2,15=8,20=1,28=1,33=2,42=6/1,2;
 7//1,2,3,16;
 1/18=20,19=15/3(2);
 2/9=110/2;
 99//99;
 2/9=110/2;
 3/5=1,6=6,7=1,11=9,16=1,25=1,30=1,71=1/1,2,3;
 4/5=5,16=3/1;
 5/5=2,32=2,38=5/2;
 7//1,2,3,16;
 1/18=20,19=15/3(-5);
 2/9=110/2;
 6/7=2,8=2,9=2,10=2,15=8,19=2,20=1,28=1,33=2,42=6/1,2;
 99/9=1/99;
 ---------------------
 remark line goes here
 ---------------------
 Symbolic Z-matrix:
 Charge =  0 Multiplicity = 1
 C                    -6.738     1.299    -3.134 
 N                    -5.727     0.543    -2.437 
 C                    -6.074    -0.268    -1.374 
 O                    -7.254    -0.496    -1.094 
 C                    -4.901    -1.012    -0.646 
 C                    -4.538    -2.217    -1.535 
 C                    -3.646    -0.122    -0.443 
 C                    -2.543    -0.753     0.423 
 C                    -1.395     0.214     0.734 
 C                    -0.647     0.668    -0.489 
 C                     0.519     0.182    -0.945 
 C                     1.298    -0.967    -0.369 
 C                     2.468    -0.524     0.517 
 C                     3.54      0.268    -0.247 
 C                     4.806     0.605     0.589 
 C                     4.42      1.438     1.822 
 N                     5.49     -0.66      0.941 
 C                     6.509    -0.729     1.869 
 C                     7.232    -2.05      1.868 
 O                     6.826     0.178     2.629 
 C                     5.779     1.365    -0.371 
 O                     6.669     0.776    -0.99 
 N                     5.497     2.7      -0.595 
 C                     6.369     3.498    -1.421 
 N                    -5.479    -1.533     0.613 
 C                    -5.75     -0.723     1.698 
 C                    -6.585    -1.397     2.756 
 O                    -5.369     0.435     1.819 
 H                    -6.304     1.695    -4.054 
 H                    -7.066     2.122    -2.493 
 H                    -7.593     0.659    -3.37 
 H                    -4.78      0.89     -2.494 
 H                    -5.43     -2.801    -1.792 
 H                    -4.079    -1.897    -2.477 
 H                    -3.846    -2.898    -1.028 
 H                    -3.21      0.108    -1.423 
 H                    -3.932     0.85     -0.025 
 H                    -2.959    -1.09      1.378 
 H                    -2.141    -1.642    -0.076 
 H                    -1.786     1.099     1.25 
 H                    -0.713    -0.264     1.446 
 H                    -1.097     1.499    -1.03 
 H                     0.945     0.638    -1.837 
 H                     1.673    -1.582    -1.196 
 H                     0.643    -1.625     0.213 
 H                     2.918    -1.423     0.955 
 H                     2.081     0.074     1.35 
 H                     3.1       1.2      -0.624 
 H                     3.836    -0.307    -1.136 
 H                     3.655     2.185     1.577 
 H                     4.019     0.808     2.624 
 H                     5.273     1.994     2.225 
 H                     5.644    -1.264     0.141 
 H                     8.171    -1.944     1.319 
 H                     6.629    -2.836     1.403 
 H                     7.439    -2.346     2.9 
 H                     4.928     3.191     0.081 
 H                     6.603     2.967    -2.347 
 H                     7.292     3.696    -0.87 
 H                     5.864     4.44     -1.649 
 H                    -6.19     -2.24      0.463 
 H                    -7.621    -1.061     2.662 
 H                    -6.198    -1.129     3.743 
 H                    -6.549    -2.486     2.661 
 

 GradGradGradGradGradGradGradGradGradGradGradGradGradGradGradGradGradGrad
 Berny optimization.
 Initialization pass.
                           ----------------------------
                           !    Initial Parameters    !
                           ! (Angstroms and Degrees)  !
 --------------------------                            --------------------------
 ! Name  Definition              Value          Derivative Info.                !
 --------------------------------------------------------------------------------
 ! R1    R(1,2)                  1.442          estimate D2E/DX2                !
 ! R2    R(1,29)                 1.0916         estimate D2E/DX2                !
 ! R3    R(1,30)                 1.0935         estimate D2E/DX2                !
 ! R4    R(1,31)                 1.0938         estimate D2E/DX2                !
 ! R5    R(2,3)                  1.3813         estimate D2E/DX2                !
 ! R6    R(2,32)                 1.0102         estimate D2E/DX2                !
 ! R7    R(3,4)                  1.234          estimate D2E/DX2                !
 ! R8    R(3,5)                  1.5683         estimate D2E/DX2                !
 ! R9    R(5,6)                  1.5408         estimate D2E/DX2                !
 ! R10   R(5,7)                  1.5519         estimate D2E/DX2                !
 ! R11   R(5,25)                 1.4801         estimate D2E/DX2                !
 ! R12   R(6,33)                 1.0967         estimate D2E/DX2                !
 ! R13   R(6,34)                 1.0956         estimate D2E/DX2                !
 ! R14   R(6,35)                 1.0953         estimate D2E/DX2                !
 ! R15   R(7,8)                  1.5378         estimate D2E/DX2                !
 ! R16   R(7,36)                 1.097          estimate D2E/DX2                !
 ! R17   R(7,37)                 1.096          estimate D2E/DX2                !
 ! R18   R(8,9)                  1.5329         estimate D2E/DX2                !
 ! R19   R(8,38)                 1.0948         estimate D2E/DX2                !
 ! R20   R(8,39)                 1.0959         estimate D2E/DX2                !
 ! R21   R(9,10)                 1.5038         estimate D2E/DX2                !
 ! R22   R(9,40)                 1.0965         estimate D2E/DX2                !
 ! R23   R(9,41)                 1.0957         estimate D2E/DX2                !
 ! R24   R(10,11)                1.343          estimate D2E/DX2                !
 ! R25   R(10,42)                1.0889         estimate D2E/DX2                !
 ! R26   R(11,12)                1.5029         estimate D2E/DX2                !
 ! R27   R(11,43)                1.0886         estimate D2E/DX2                !
 ! R28   R(12,13)                1.533          estimate D2E/DX2                !
 ! R29   R(12,44)                1.0967         estimate D2E/DX2                !
 ! R30   R(12,45)                1.0958         estimate D2E/DX2                !
 ! R31   R(13,14)                1.5363         estimate D2E/DX2                !
 ! R32   R(13,46)                1.0966         estimate D2E/DX2                !
 ! R33   R(13,47)                1.096          estimate D2E/DX2                !
 ! R34   R(14,15)                1.5541         estimate D2E/DX2                !
 ! R35   R(14,48)                1.0974         estimate D2E/DX2                !
 ! R36   R(14,49)                1.0993         estimate D2E/DX2                !
 ! R37   R(15,16)                1.5373         estimate D2E/DX2                !
 ! R38   R(15,17)                1.4805         estimate D2E/DX2                !
 ! R39   R(15,21)                1.5639         estimate D2E/DX2                !
 ! R40   R(16,50)                1.0969         estimate D2E/DX2                !
 ! R41   R(16,51)                1.0959         estimate D2E/DX2                !
 ! R42   R(16,52)                1.0951         estimate D2E/DX2                !
 ! R43   R(17,18)                1.38           estimate D2E/DX2                !
 ! R44   R(17,53)                1.0142         estimate D2E/DX2                !
 ! R45   R(18,19)                1.5059         estimate D2E/DX2                !
 ! R46   R(18,20)                1.225          estimate D2E/DX2                !
 ! R47   R(19,54)                1.0929         estimate D2E/DX2                !
 ! R48   R(19,55)                1.0944         estimate D2E/DX2                !
 ! R49   R(19,56)                1.0934         estimate D2E/DX2                !
 ! R50   R(21,22)                1.2338         estimate D2E/DX2                !
 ! R51   R(21,23)                1.3827         estimate D2E/DX2                !
 ! R52   R(23,24)                1.442          estimate D2E/DX2                !
 ! R53   R(23,57)                1.0109         estimate D2E/DX2                !
 ! R54   R(24,58)                1.0928         estimate D2E/DX2                !
 ! R55   R(24,59)                1.093          estimate D2E/DX2                !
 ! R56   R(24,60)                1.0929         estimate D2E/DX2                !
 ! R57   R(25,26)                1.3809         estimate D2E/DX2                !
 ! R58   R(25,61)                1.0138         estimate D2E/DX2                !
 ! R59   R(26,27)                1.5069         estimate D2E/DX2                !
 ! R60   R(26,28)                1.2251         estimate D2E/DX2                !
 ! R61   R(27,62)                1.0932         estimate D2E/DX2                !
 ! R62   R(27,63)                1.0935         estimate D2E/DX2                !
 ! R63   R(27,64)                1.0937         estimate D2E/DX2                !
 ! A1    A(2,1,29)             108.5909         estimate D2E/DX2                !
 ! A2    A(2,1,30)             108.7554         estimate D2E/DX2                !
 ! A3    A(2,1,31)             110.2169         estimate D2E/DX2                !
 ! A4    A(29,1,30)            109.8928         estimate D2E/DX2                !
 ! A5    A(29,1,31)            109.9508         estimate D2E/DX2                !
 ! A6    A(30,1,31)            109.4138         estimate D2E/DX2                !
 ! A7    A(1,2,3)              120.2408         estimate D2E/DX2                !
 ! A8    A(1,2,32)             116.7363         estimate D2E/DX2                !
 ! A9    A(3,2,32)             118.7239         estimate D2E/DX2                !
 ! A10   A(2,3,4)              121.5537         estimate D2E/DX2                !
 ! A11   A(2,3,5)              116.6069         estimate D2E/DX2                !
 ! A12   A(4,3,5)              121.4827         estimate D2E/DX2                !
 ! A13   A(3,5,6)              106.224          estimate D2E/DX2                !
 ! A14   A(3,5,7)              113.1739         estimate D2E/DX2                !
 ! A15   A(3,5,25)             105.6508         estimate D2E/DX2                !
 ! A16   A(6,5,7)              109.4788         estimate D2E/DX2                !
 ! A17   A(6,5,25)             107.9087         estimate D2E/DX2                !
 ! A18   A(7,5,25)             113.9802         estimate D2E/DX2                !
 ! A19   A(5,6,33)             111.1024         estimate D2E/DX2                !
 ! A20   A(5,6,34)             111.4902         estimate D2E/DX2                !
 ! A21   A(5,6,35)             111.5932         estimate D2E/DX2                !
 ! A22   A(33,6,34)            107.1446         estimate D2E/DX2                !
 ! A23   A(33,6,35)            106.933          estimate D2E/DX2                !
 ! A24   A(34,6,35)            108.3541         estimate D2E/DX2                !
 ! A25   A(5,7,8)              114.7334         estimate D2E/DX2                !
 ! A26   A(5,7,36)             108.9534         estimate D2E/DX2                !
 ! A27   A(5,7,37)             110.3321         estimate D2E/DX2                !
 ! A28   A(8,7,36)             107.7008         estimate D2E/DX2                !
 ! A29   A(8,7,37)             109.651          estimate D2E/DX2                !
 ! A30   A(36,7,37)            104.9795         estimate D2E/DX2                !
 ! A31   A(7,8,9)              113.1151         estimate D2E/DX2                !
 ! A32   A(7,8,38)             110.1814         estimate D2E/DX2                !
 ! A33   A(7,8,39)             109.8504         estimate D2E/DX2                !
 ! A34   A(9,8,38)             107.5639         estimate D2E/DX2                !
 ! A35   A(9,8,39)             109.2331         estimate D2E/DX2                !
 ! A36   A(38,8,39)            106.6707         estimate D2E/DX2                !
 ! A37   A(8,9,10)             113.4515         estimate D2E/DX2                !
 ! A38   A(8,9,40)             109.729          estimate D2E/DX2                !
 ! A39   A(8,9,41)             108.8315         estimate D2E/DX2                !
 ! A40   A(10,9,40)            108.4463         estimate D2E/DX2                !
 ! A41   A(10,9,41)            110.523          estimate D2E/DX2                !
 ! A42   A(40,9,41)            105.5606         estimate D2E/DX2                !
 ! A43   A(9,10,11)            126.7797         estimate D2E/DX2                !
 ! A44   A(9,10,42)            115.3977         estimate D2E/DX2                !
 ! A45   A(11,10,42)           117.7916         estimate D2E/DX2                !
 ! A46   A(10,11,12)           126.6217         estimate D2E/DX2                !
 ! A47   A(10,11,43)           117.7993         estimate D2E/DX2                !
 ! A48   A(12,11,43)           115.5589         estimate D2E/DX2                !
 ! A49   A(11,12,13)           113.3382         estimate D2E/DX2                !
 ! A50   A(11,12,44)           108.4779         estimate D2E/DX2                !
 ! A51   A(11,12,45)           110.6591         estimate D2E/DX2                !
 ! A52   A(13,12,44)           109.6879         estimate D2E/DX2                !
 ! A53   A(13,12,45)           108.8302         estimate D2E/DX2                !
 ! A54   A(44,12,45)           105.5552         estimate D2E/DX2                !
 ! A55   A(12,13,14)           113.2107         estimate D2E/DX2                !
 ! A56   A(12,13,46)           107.886          estimate D2E/DX2                !
 ! A57   A(12,13,47)           109.1131         estimate D2E/DX2                !
 ! A58   A(14,13,46)           109.5678         estimate D2E/DX2                !
 ! A59   A(14,13,47)           110.0641         estimate D2E/DX2                !
 ! A60   A(46,13,47)           106.7756         estimate D2E/DX2                !
 ! A61   A(13,14,15)           114.3751         estimate D2E/DX2                !
 ! A62   A(13,14,48)           109.2013         estimate D2E/DX2                !
 ! A63   A(13,14,49)           108.6866         estimate D2E/DX2                !
 ! A64   A(15,14,48)           109.1019         estimate D2E/DX2                !
 ! A65   A(15,14,49)           109.2134         estimate D2E/DX2                !
 ! A66   A(48,14,49)           105.9231         estimate D2E/DX2                !
 ! A67   A(14,15,16)           110.1463         estimate D2E/DX2                !
 ! A68   A(14,15,17)           108.6005         estimate D2E/DX2                !
 ! A69   A(14,15,21)           106.3789         estimate D2E/DX2                !
 ! A70   A(16,15,17)           112.8486         estimate D2E/DX2                !
 ! A71   A(16,15,21)           112.6583         estimate D2E/DX2                !
 ! A72   A(17,15,21)           105.8856         estimate D2E/DX2                !
 ! A73   A(15,16,50)           111.4064         estimate D2E/DX2                !
 ! A74   A(15,16,51)           111.5529         estimate D2E/DX2                !
 ! A75   A(15,16,52)           112.0066         estimate D2E/DX2                !
 ! A76   A(50,16,51)           107.4431         estimate D2E/DX2                !
 ! A77   A(50,16,52)           106.2409         estimate D2E/DX2                !
 ! A78   A(51,16,52)           107.9146         estimate D2E/DX2                !
 ! A79   A(15,17,18)           122.9395         estimate D2E/DX2                !
 ! A80   A(15,17,53)           113.046          estimate D2E/DX2                !
 ! A81   A(18,17,53)           112.8651         estimate D2E/DX2                !
 ! A82   A(17,18,19)           113.4493         estimate D2E/DX2                !
 ! A83   A(17,18,20)           124.8378         estimate D2E/DX2                !
 ! A84   A(19,18,20)           121.7117         estimate D2E/DX2                !
 ! A85   A(18,19,54)           109.1331         estimate D2E/DX2                !
 ! A86   A(18,19,55)           111.4553         estimate D2E/DX2                !
 ! A87   A(18,19,56)           109.1319         estimate D2E/DX2                !
 ! A88   A(54,19,55)           109.247          estimate D2E/DX2                !
 ! A89   A(54,19,56)           109.7391         estimate D2E/DX2                !
 ! A90   A(55,19,56)           108.1152         estimate D2E/DX2                !
 ! A91   A(15,21,22)           121.6528         estimate D2E/DX2                !
 ! A92   A(15,21,23)           116.2146         estimate D2E/DX2                !
 ! A93   A(22,21,23)           121.7871         estimate D2E/DX2                !
 ! A94   A(21,23,24)           120.2486         estimate D2E/DX2                !
 ! A95   A(21,23,57)           118.3873         estimate D2E/DX2                !
 ! A96   A(24,23,57)           117.042          estimate D2E/DX2                !
 ! A97   A(23,24,58)           110.2407         estimate D2E/DX2                !
 ! A98   A(23,24,59)           108.7915         estimate D2E/DX2                !
 ! A99   A(23,24,60)           108.4856         estimate D2E/DX2                !
 ! A100  A(58,24,59)           109.5337         estimate D2E/DX2                !
 ! A101  A(58,24,60)           109.9375         estimate D2E/DX2                !
 ! A102  A(59,24,60)           109.8299         estimate D2E/DX2                !
 ! A103  A(5,25,26)            122.5841         estimate D2E/DX2                !
 ! A104  A(5,25,61)            113.1719         estimate D2E/DX2                !
 ! A105  A(26,25,61)           112.8102         estimate D2E/DX2                !
 ! A106  A(25,26,27)           113.4559         estimate D2E/DX2                !
 ! A107  A(25,26,28)           124.8239         estimate D2E/DX2                !
 ! A108  A(27,26,28)           121.7198         estimate D2E/DX2                !
 ! A109  A(26,27,62)           109.1038         estimate D2E/DX2                !
 ! A110  A(26,27,63)           109.1465         estimate D2E/DX2                !
 ! A111  A(26,27,64)           111.4759         estimate D2E/DX2                !
 ! A112  A(62,27,63)           109.7356         estimate D2E/DX2                !
 ! A113  A(62,27,64)           109.2541         estimate D2E/DX2                !
 ! A114  A(63,27,64)           108.1058         estimate D2E/DX2                !
 ! D1    D(29,1,2,3)          -167.9773         estimate D2E/DX2                !
 ! D2    D(29,1,2,32)           35.5956         estimate D2E/DX2                !
 ! D3    D(30,1,2,3)            72.4623         estimate D2E/DX2                !
 ! D4    D(30,1,2,32)          -83.9648         estimate D2E/DX2                !
 ! D5    D(31,1,2,3)           -47.4796         estimate D2E/DX2                !
 ! D6    D(31,1,2,32)          156.0933         estimate D2E/DX2                !
 ! D7    D(1,2,3,4)              8.8502         estimate D2E/DX2                !
 ! D8    D(1,2,3,5)           -177.9109         estimate D2E/DX2                !
 ! D9    D(32,2,3,4)           164.8163         estimate D2E/DX2                !
 ! D10   D(32,2,3,5)           -21.9447         estimate D2E/DX2                !
 ! D11   D(2,3,5,6)            -78.6358         estimate D2E/DX2                !
 ! D12   D(2,3,5,7)             41.5181         estimate D2E/DX2                !
 ! D13   D(2,3,5,25)           166.9011         estimate D2E/DX2                !
 ! D14   D(4,3,5,6)             94.6083         estimate D2E/DX2                !
 ! D15   D(4,3,5,7)           -145.2377         estimate D2E/DX2                !
 ! D16   D(4,3,5,25)           -19.8548         estimate D2E/DX2                !
 ! D17   D(3,5,6,33)           -50.8879         estimate D2E/DX2                !
 ! D18   D(3,5,6,34)            68.5526         estimate D2E/DX2                !
 ! D19   D(3,5,6,35)          -170.1295         estimate D2E/DX2                !
 ! D20   D(7,5,6,33)          -173.4115         estimate D2E/DX2                !
 ! D21   D(7,5,6,34)           -53.9709         estimate D2E/DX2                !
 ! D22   D(7,5,6,35)            67.347          estimate D2E/DX2                !
 ! D23   D(25,5,6,33)           62.0231         estimate D2E/DX2                !
 ! D24   D(25,5,6,34)         -178.5363         estimate D2E/DX2                !
 ! D25   D(25,5,6,35)          -57.2184         estimate D2E/DX2                !
 ! D26   D(3,5,7,8)            172.5501         estimate D2E/DX2                !
 ! D27   D(3,5,7,36)           -66.6433         estimate D2E/DX2                !
 ! D28   D(3,5,7,37)            48.1094         estimate D2E/DX2                !
 ! D29   D(6,5,7,8)            -69.1706         estimate D2E/DX2                !
 ! D30   D(6,5,7,36)            51.6361         estimate D2E/DX2                !
 ! D31   D(6,5,7,37)           166.3888         estimate D2E/DX2                !
 ! D32   D(25,5,7,8)            51.781          estimate D2E/DX2                !
 ! D33   D(25,5,7,36)          172.5876         estimate D2E/DX2                !
 ! D34   D(25,5,7,37)          -72.6597         estimate D2E/DX2                !
 ! D35   D(3,5,25,26)          -75.3203         estimate D2E/DX2                !
 ! D36   D(3,5,25,61)           65.3974         estimate D2E/DX2                !
 ! D37   D(6,5,25,26)          171.3849         estimate D2E/DX2                !
 ! D38   D(6,5,25,61)          -47.8973         estimate D2E/DX2                !
 ! D39   D(7,5,25,26)           49.5626         estimate D2E/DX2                !
 ! D40   D(7,5,25,61)         -169.7197         estimate D2E/DX2                !
 ! D41   D(5,7,8,9)           -173.3445         estimate D2E/DX2                !
 ! D42   D(5,7,8,38)           -52.9157         estimate D2E/DX2                !
 ! D43   D(5,7,8,39)            64.3191         estimate D2E/DX2                !
 ! D44   D(36,7,8,9)            65.1624         estimate D2E/DX2                !
 ! D45   D(36,7,8,38)         -174.4089         estimate D2E/DX2                !
 ! D46   D(36,7,8,39)          -57.1741         estimate D2E/DX2                !
 ! D47   D(37,7,8,9)           -48.5449         estimate D2E/DX2                !
 ! D48   D(37,7,8,38)           71.8838         estimate D2E/DX2                !
 ! D49   D(37,7,8,39)         -170.8814         estimate D2E/DX2                !
 ! D50   D(7,8,9,10)           -63.1303         estimate D2E/DX2                !
 ! D51   D(7,8,9,40)            58.3353         estimate D2E/DX2                !
 ! D52   D(7,8,9,41)           173.3853         estimate D2E/DX2                !
 ! D53   D(38,8,9,10)          174.9615         estimate D2E/DX2                !
 ! D54   D(38,8,9,40)          -63.5729         estimate D2E/DX2                !
 ! D55   D(38,8,9,41)           51.4771         estimate D2E/DX2                !
 ! D56   D(39,8,9,10)           59.55           estimate D2E/DX2                !
 ! D57   D(39,8,9,40)         -178.9844         estimate D2E/DX2                !
 ! D58   D(39,8,9,41)          -63.9344         estimate D2E/DX2                !
 ! D59   D(8,9,10,11)          -98.985          estimate D2E/DX2                !
 ! D60   D(8,9,10,42)           83.1            estimate D2E/DX2                !
 ! D61   D(40,9,10,11)         138.8341         estimate D2E/DX2                !
 ! D62   D(40,9,10,42)         -39.0809         estimate D2E/DX2                !
 ! D63   D(41,9,10,11)          23.5685         estimate D2E/DX2                !
 ! D64   D(41,9,10,42)        -154.3465         estimate D2E/DX2                !
 ! D65   D(9,10,11,12)           3.1726         estimate D2E/DX2                !
 ! D66   D(9,10,11,43)        -178.5408         estimate D2E/DX2                !
 ! D67   D(42,10,11,12)       -178.9566         estimate D2E/DX2                !
 ! D68   D(42,10,11,43)         -0.67           estimate D2E/DX2                !
 ! D69   D(10,11,12,13)        -99.8042         estimate D2E/DX2                !
 ! D70   D(10,11,12,44)        138.1201         estimate D2E/DX2                !
 ! D71   D(10,11,12,45)         22.7683         estimate D2E/DX2                !
 ! D72   D(43,11,12,13)         81.8759         estimate D2E/DX2                !
 ! D73   D(43,11,12,44)        -40.1999         estimate D2E/DX2                !
 ! D74   D(43,11,12,45)       -155.5516         estimate D2E/DX2                !
 ! D75   D(11,12,13,14)        -63.2995         estimate D2E/DX2                !
 ! D76   D(11,12,13,46)        175.2801         estimate D2E/DX2                !
 ! D77   D(11,12,13,47)         59.634          estimate D2E/DX2                !
 ! D78   D(44,12,13,14)         58.0995         estimate D2E/DX2                !
 ! D79   D(44,12,13,46)        -63.321          estimate D2E/DX2                !
 ! D80   D(44,12,13,47)       -178.967          estimate D2E/DX2                !
 ! D81   D(45,12,13,14)        173.12           estimate D2E/DX2                !
 ! D82   D(45,12,13,46)         51.6996         estimate D2E/DX2                !
 ! D83   D(45,12,13,47)        -63.9465         estimate D2E/DX2                !
 ! D84   D(12,13,14,15)       -174.0452         estimate D2E/DX2                !
 ! D85   D(12,13,14,48)         63.3912         estimate D2E/DX2                !
 ! D86   D(12,13,14,49)        -51.7255         estimate D2E/DX2                !
 ! D87   D(46,13,14,15)        -53.5758         estimate D2E/DX2                !
 ! D88   D(46,13,14,48)       -176.1394         estimate D2E/DX2                !
 ! D89   D(46,13,14,49)         68.7439         estimate D2E/DX2                !
 ! D90   D(47,13,14,15)         63.549          estimate D2E/DX2                !
 ! D91   D(47,13,14,48)        -59.0145         estimate D2E/DX2                !
 ! D92   D(47,13,14,49)       -174.1313         estimate D2E/DX2                !
 ! D93   D(13,14,15,16)        -59.2767         estimate D2E/DX2                !
 ! D94   D(13,14,15,17)         64.7697         estimate D2E/DX2                !
 ! D95   D(13,14,15,21)        178.3439         estimate D2E/DX2                !
 ! D96   D(48,14,15,16)         63.3409         estimate D2E/DX2                !
 ! D97   D(48,14,15,17)       -172.6127         estimate D2E/DX2                !
 ! D98   D(48,14,15,21)        -59.0386         estimate D2E/DX2                !
 ! D99   D(49,14,15,16)        178.6911         estimate D2E/DX2                !
 ! D100  D(49,14,15,17)        -57.2625         estimate D2E/DX2                !
 ! D101  D(49,14,15,21)         56.3117         estimate D2E/DX2                !
 ! D102  D(14,15,16,50)        -40.3317         estimate D2E/DX2                !
 ! D103  D(14,15,16,51)         79.7355         estimate D2E/DX2                !
 ! D104  D(14,15,16,52)       -159.177          estimate D2E/DX2                !
 ! D105  D(17,15,16,50)       -161.8832         estimate D2E/DX2                !
 ! D106  D(17,15,16,51)        -41.816          estimate D2E/DX2                !
 ! D107  D(17,15,16,52)         79.2715         estimate D2E/DX2                !
 ! D108  D(21,15,16,50)         78.2646         estimate D2E/DX2                !
 ! D109  D(21,15,16,51)       -161.6682         estimate D2E/DX2                !
 ! D110  D(21,15,16,52)        -40.5807         estimate D2E/DX2                !
 ! D111  D(14,15,17,18)       -168.3431         estimate D2E/DX2                !
 ! D112  D(14,15,17,53)         50.5079         estimate D2E/DX2                !
 ! D113  D(16,15,17,18)        -45.9212         estimate D2E/DX2                !
 ! D114  D(16,15,17,53)        172.9297         estimate D2E/DX2                !
 ! D115  D(21,15,17,18)         77.7584         estimate D2E/DX2                !
 ! D116  D(21,15,17,53)        -63.3907         estimate D2E/DX2                !
 ! D117  D(14,15,21,22)        -94.653          estimate D2E/DX2                !
 ! D118  D(14,15,21,23)         78.7118         estimate D2E/DX2                !
 ! D119  D(16,15,21,22)        144.5695         estimate D2E/DX2                !
 ! D120  D(16,15,21,23)        -42.0657         estimate D2E/DX2                !
 ! D121  D(17,15,21,22)         20.7704         estimate D2E/DX2                !
 ! D122  D(17,15,21,23)       -165.8648         estimate D2E/DX2                !
 ! D123  D(15,17,18,19)       -168.6118         estimate D2E/DX2                !
 ! D124  D(15,17,18,20)         11.0003         estimate D2E/DX2                !
 ! D125  D(53,17,18,19)        -27.401          estimate D2E/DX2                !
 ! D126  D(53,17,18,20)        152.2111         estimate D2E/DX2                !
 ! D127  D(17,18,19,54)        100.7294         estimate D2E/DX2                !
 ! D128  D(17,18,19,55)        -20.017          estimate D2E/DX2                !
 ! D129  D(17,18,19,56)       -139.3541         estimate D2E/DX2                !
 ! D130  D(20,18,19,54)        -78.8963         estimate D2E/DX2                !
 ! D131  D(20,18,19,55)        160.3573         estimate D2E/DX2                !
 ! D132  D(20,18,19,56)         41.0201         estimate D2E/DX2                !
 ! D133  D(15,21,23,24)        177.4126         estimate D2E/DX2                !
 ! D134  D(15,21,23,57)         21.4364         estimate D2E/DX2                !
 ! D135  D(22,21,23,24)         -9.2323         estimate D2E/DX2                !
 ! D136  D(22,21,23,57)       -165.2085         estimate D2E/DX2                !
 ! D137  D(21,23,24,58)         47.2838         estimate D2E/DX2                !
 ! D138  D(21,23,24,59)        -72.8419         estimate D2E/DX2                !
 ! D139  D(21,23,24,60)        167.7137         estimate D2E/DX2                !
 ! D140  D(57,23,24,58)       -156.4273         estimate D2E/DX2                !
 ! D141  D(57,23,24,59)         83.447          estimate D2E/DX2                !
 ! D142  D(57,23,24,60)        -35.9974         estimate D2E/DX2                !
 ! D143  D(5,25,26,27)         168.218          estimate D2E/DX2                !
 ! D144  D(5,25,26,28)         -11.5424         estimate D2E/DX2                !
 ! D145  D(61,25,26,27)         27.375          estimate D2E/DX2                !
 ! D146  D(61,25,26,28)       -152.3854         estimate D2E/DX2                !
 ! D147  D(25,26,27,62)       -101.2054         estimate D2E/DX2                !
 ! D148  D(25,26,27,63)        138.8913         estimate D2E/DX2                !
 ! D149  D(25,26,27,64)         19.5437         estimate D2E/DX2                !
 ! D150  D(28,26,27,62)         78.5634         estimate D2E/DX2                !
 ! D151  D(28,26,27,63)        -41.34           estimate D2E/DX2                !
 ! D152  D(28,26,27,64)       -160.6876         estimate D2E/DX2                !
 --------------------------------------------------------------------------------
 Trust Radius=3.00D-01 FncErr=1.00D-07 GrdErr=1.00D-07
 Number of steps in this run= 339 maximum allowed number of steps= 384.
 GradGradGradGradGradGradGradGradGradGradGradGradGradGradGradGradGradGrad

 Stoichiometry    C20H36N4O4
 Framework group  C1[X(C20H36N4O4)]
 Deg. of freedom   186
 Full point group                 C1      NOp   1
 Largest Abelian subgroup         C1      NOp   1
 Largest concise Abelian subgroup C1      NOp   1
                         Standard orientation:                         
 ---------------------------------------------------------------------
 Center     Atomic      Atomic             Coordinates (Angstroms)
 Number     Number       Type             X           Y           Z
 ---------------------------------------------------------------------
      1          6           0        6.857552    3.251942    0.074799
      2          7           0        5.865729    2.252230    0.385171
      3          6           0        6.197424    0.911560    0.359099
      4          8           0        7.366723    0.537967    0.232800
      5          6           0        5.041209   -0.104050    0.661015
      6          6           0        4.860816   -0.108539    2.191228
      7          6           0        3.699031    0.279321   -0.017159
      8          6           0        2.591026   -0.780037    0.104549
      9          6           0        1.339442   -0.438312   -0.711829
     10          6           0        0.654662    0.821386   -0.258411
     11          6           0       -0.422379    0.908762    0.539108
     12          6           0       -1.138822   -0.231599    1.206269
     13          6           0       -2.411484   -0.663820    0.468935
     14          6           0       -3.485264    0.433791    0.420051
     15          6           0       -4.839667   -0.020726   -0.191691
     16          6           0       -4.630728   -0.514652   -1.632370
     17          7           0       -5.433328   -1.052018    0.689211
     18          6           0       -6.513458   -1.825800    0.316537
     19          6           0       -7.112352   -2.607308    1.455985
     20          8           0       -6.970911   -1.888795   -0.818146
     21          6           0       -5.796500    1.213721   -0.110804
     22          8           0       -6.577166    1.367092    0.832181
     23          7           0       -5.618506    2.188696   -1.074996
     24          6           0       -6.489292    3.337399   -1.115950
     25          7           0        5.560352   -1.430821    0.260048
     26          6           0        5.669127   -1.818662   -1.060753
     27          6           0        6.473341   -3.078690   -1.251627
     28          8           0        5.177076   -1.218791   -2.008807
     29          1           0        6.465272    4.230735    0.357028
     30          1           0        7.057522    3.227033   -0.999997
     31          1           0        7.782843    3.048911    0.621548
     32          1           0        4.899058    2.515779    0.256497
     33          1           0        5.819496   -0.261648    2.701385
     34          1           0        4.452323    0.842694    2.550025
     35          1           0        4.194231   -0.914615    2.516159
     36          1           0        3.324522    1.206917    0.433068
     37          1           0        3.861886    0.522685   -1.073357
     38          1           0        2.957314   -1.751387   -0.243247
     39          1           0        2.312087   -0.907585    1.156619
     40          1           0        1.606451   -0.326659   -1.769468
     41          1           0        0.648016   -1.287334   -0.671279
     42          1           0        1.070275    1.747066   -0.653537
     43          1           0       -0.814367    1.900921    0.755998
     44          1           0       -1.389155    0.067282    2.231345
     45          1           0       -0.476370   -1.098680    1.306475
     46          1           0       -2.812684   -1.547642    0.979271
     47          1           0       -2.148195   -0.977809   -0.547604
     48          1           0       -3.101873    1.288583   -0.151523
     49          1           0       -3.655774    0.805419    1.440531
     50          1           0       -3.918722    0.120168   -2.173951
     51          1           0       -4.240664   -1.538504   -1.654342
     52          1           0       -5.559942   -0.495706   -2.211469
     53          1           0       -5.467442   -0.770598    1.662952
     54          1           0       -8.009771   -2.093767    1.809926
     55          1           0       -6.405640   -2.711431    2.285049
     56          1           0       -7.374399   -3.609050    1.104796
     57          1           0       -5.152278    1.934525   -1.935139
     58          1           0       -6.599228    3.764320   -0.116027
     59          1           0       -7.467742    3.024372   -1.489290
     60          1           0       -6.054283    4.078071   -1.791630
     61          1           0        6.341789   -1.741273    0.826481
     62          1           0        7.479139   -2.813663   -1.588021
     63          1           0        5.985543   -3.705047   -2.003619
     64          1           0        6.543145   -3.653581   -0.323796
 ---------------------------------------------------------------------
 Rotational constants (GHZ):      0.3423373      0.0442091      0.0417213
 Standard basis: 6-31G(d) (6D, 7F)
 There are   492 symmetry adapted basis functions of A   symmetry.
 Integral buffers will be    131072 words long.
 Raffenetti 1 integral format.
 Two-electron integral symmetry is turned on.
   492 basis functions,   928 primitive gaussians,   492 cartesian basis functions
   108 alpha electrons      108 beta electrons
       nuclear repulsion energy      2601.5183820270 Hartrees.
 NAtoms=   64 NActive=   64 NUniq=   64 SFac= 7.50D-01 NAtFMM=   80 NAOKFM=F Big=T
 One-electron integrals computed using PRISM.
 NBasis=   492 RedAO= T  NBF=   492
 NBsUse=   492 1.00D-06 NBFU=   492
 Harris functional with IExCor=  205 diagonalized for initial guess.
 ExpMin= 1.61D-01 ExpMax= 5.48D+03 ExpMxC= 8.25D+02 IAcc=1 IRadAn=         1 AccDes= 0.00D+00
 HarFok:  IExCor=  205 AccDes= 0.00D+00 IRadAn=         1 IDoV= 1
 ScaDFX=  1.000000  1.000000  1.000000  1.000000
 FoFCou: FMM=F IPFlag=           0 FMFlag=      100000 FMFlg1=           1
         NFxFlg=           0 DoJE=T BraDBF=F KetDBF=T FulRan=T
         Omega=  0.000000  0.000000  1.000000  0.000000  0.000000 ICntrl=     500 IOpCl=  0
         NMat0=    1 NMatS0=    1 NMatT0=    0 NMatD0=    1 NMtDS0=    0 NMtDT0=    0
         I1Cent=           4 NGrid=           0.
 Petite list used in FoFCou.
 Initial guess orbital symmetries:
       Occupied  (A) (A) (A) (A) (A) (A) (A) (A) (A) (A) (A) (A)
                 (A) (A) (A) (A) (A) (A) (A) (A) (A) (A) (A) (A)
                 (A) (A) (A) (A) (A) (A) (A) (A) (A) (A) (A) (A)
                 (A) (A) (A) (A) (A) (A) (A) (A) (A) (A) (A) (A)
                 (A) (A) (A) (A) (A) (A) (A) (A) (A) (A) (A) (A)
                 (A) (A) (A) (A) (A) (A) (A) (A) (A) (A) (A) (A)
                 (A) (A) (A) (A) (A) (A) (A) (A) (A) (A) (A) (A)
                 (A) (A) (A) (A) (A) (A) (A) (A) (A) (A) (A) (A)
                 (A) (A) (A) (A) (A) (A) (A) (A) (A) (A) (A) (A)
       Virtual   (A) (A) (A) (A) (A) (A) (A) (A) (A) (A) (A) (A)
                 (A) (A) (A) (A) (A) (A) (A) (A) (A) (A) (A) (A)
                 (A) (A) (A) (A) (A) (A) (A) (A) (A) (A) (A) (A)
                 (A) (A) (A) (A) (A) (A) (A) (A) (A) (A) (A) (A)
                 (A) (A) (A) (A) (A) (A) (A) (A) (A) (A) (A) (A)
                 (A) (A) (A) (A) (A) (A) (A) (A) (A) (A) (A) (A)
                 (A) (A) (A) (A) (A) (A) (A) (A) (A) (A) (A) (A)
                 (A) (A) (A) (A) (A) (A) (A) (A) (A) (A) (A) (A)
                 (A) (A) (A) (A) (A) (A) (A) (A) (A) (A) (A) (A)
                 (A) (A) (A) (A) (A) (A) (A) (A) (A) (A) (A) (A)
                 (A) (A) (A) (A) (A) (A) (A) (A) (A) (A) (A) (A)
                 (A) (A) (A) (A) (A) (A) (A) (A) (A) (A) (A) (A)
                 (A) (A) (A) (A) (A) (A) (A) (A) (A) (A) (A) (A)
                 (A) (A) (A) (A) (A) (A) (A) (A) (A) (A) (A) (A)
                 (A) (A) (A) (A) (A) (A) (A) (A) (A) (A) (A) (A)
                 (A) (A) (A) (A) (A) (A) (A) (A) (A) (A) (A) (A)
                 (A) (A) (A) (A) (A) (A) (A) (A) (A) (A) (A) (A)
                 (A) (A) (A) (A) (A) (A) (A) (A) (A) (A) (A) (A)
                 (A) (A) (A) (A) (A) (A) (A) (A) (A) (A) (A) (A)
                 (A) (A) (A) (A) (A) (A) (A) (A) (A) (A) (A) (A)
                 (A) (A) (A) (A) (A) (A) (A) (A) (A) (A) (A) (A)
                 (A) (A) (A) (A) (A) (A) (A) (A) (A) (A) (A) (A)
                 (A) (A) (A) (A) (A) (A) (A) (A) (A) (A) (A) (A)
                 (A) (A) (A) (A) (A) (A) (A) (A) (A) (A) (A) (A)
                 (A) (A) (A) (A) (A) (A) (A) (A) (A) (A) (A) (A)
                 (A) (A) (A) (A) (A) (A) (A) (A) (A) (A) (A) (A)
                 (A) (A) (A) (A) (A) (A) (A) (A) (A) (A) (A) (A)
                 (A) (A) (A) (A) (A) (A) (A) (A) (A) (A) (A) (A)
                 (A) (A) (A) (A) (A) (A) (A) (A) (A) (A) (A) (A)
                 (A) (A) (A) (A) (A) (A) (A) (A) (A) (A) (A) (A)
                 (A) (A) (A) (A) (A) (A) (A) (A) (A) (A) (A) (A)
                 (A) (A) (A) (A) (A) (A) (A) (A) (A) (A) (A) (A)
 The electronic state of the initial guess is 1-A.
 Requested convergence on RMS density matrix=1.00D-08 within 128 cycles.
 Requested convergence on MAX density matrix=1.00D-06.
 Requested convergence on             energy=1.00D-06.
 No special actions if energy rises.
 Integral accuracy reduced to 1.0D-05 until final iterations.
 Initial convergence to 1.0D-05 achieved.  Increase integral accuracy.
 SCF Done:  E(RHF) =  -1295.60220260     A.U. after   14 cycles
             Convg  =    0.7647D-08             -V/T =  2.0024

 **********************************************************************

            Population analysis using the SCF density.

 **********************************************************************

 Orbital symmetries:
 BldTbl:  Degeneracy threshold= 1.00D-02
       Occupied  (A) (A) (A) (A) (A) (A) (A) (A) (A) (A) (A) (A)
                 (A) (A) (A) (A) (A) (A) (A) (A) (A) (A) (A) (A)
                 (A) (A) (A) (A) (A) (A) (A) (A) (A) (A) (A) (A)
                 (A) (A) (A) (A) (A) (A) (A) (A) (A) (A) (A) (A)
                 (A) (A) (A) (A) (A) (A) (A) (A) (A) (A) (A) (A)
                 (A) (A) (A) (A) (A) (A) (A) (A) (A) (A) (A) (A)
                 (A) (A) (A) (A) (A) (A) (A) (A) (A) (A) (A) (A)
                 (A) (A) (A) (A) (A) (A) (A) (A) (A) (A) (A) (A)
                 (A) (A) (A) (A) (A) (A) (A) (A) (A) (A) (A) (A)
       Virtual   (A) (A) (A) (A) (A) (A) (A) (A) (A) (A) (A) (A)
                 (A) (A) (A) (A) (A) (A) (A) (A) (A) (A) (A) (A)
                 (A) (A) (A) (A) (A) (A) (A) (A) (A) (A) (A) (A)
                 (A) (A) (A) (A) (A) (A) (A) (A) (A) (A) (A) (A)
                 (A) (A) (A) (A) (A) (A) (A) (A) (A) (A) (A) (A)
                 (A) (A) (A) (A) (A) (A) (A) (A) (A) (A) (A) (A)
                 (A) (A) (A) (A) (A) (A) (A) (A) (A) (A) (A) (A)
                 (A) (A) (A) (A) (A) (A) (A) (A) (A) (A) (A) (A)
                 (A) (A) (A) (A) (A) (A) (A) (A) (A) (A) (A) (A)
                 (A) (A) (A) (A) (A) (A) (A) (A) (A) (A) (A) (A)
                 (A) (A) (A) (A) (A) (A) (A) (A) (A) (A) (A) (A)
                 (A) (A) (A) (A) (A) (A) (A) (A) (A) (A) (A) (A)
                 (A) (A) (A) (A) (A) (A) (A) (A) (A) (A) (A) (A)
                 (A) (A) (A) (A) (A) (A) (A) (A) (A) (A) (A) (A)
                 (A) (A) (A) (A) (A) (A) (A) (A) (A) (A) (A) (A)
                 (A) (A) (A) (A) (A) (A) (A) (A) (A) (A) (A) (A)
                 (A) (A) (A) (A) (A) (A) (A) (A) (A) (A) (A) (A)
                 (A) (A) (A) (A) (A) (A) (A) (A) (A) (A) (A) (A)
                 (A) (A) (A) (A) (A) (A) (A) (A) (A) (A) (A) (A)
                 (A) (A) (A) (A) (A) (A) (A) (A) (A) (A) (A) (A)
                 (A) (A) (A) (A) (A) (A) (A) (A) (A) (A) (A) (A)
                 (A) (A) (A) (A) (A) (A) (A) (A) (A) (A) (A) (A)
                 (A) (A) (A) (A) (A) (A) (A) (A) (A) (A) (A) (A)
                 (A) (A) (A) (A) (A) (A) (A) (A) (A) (A) (A) (A)
                 (A) (A) (A) (A) (A) (A) (A) (A) (A) (A) (A) (A)
                 (A) (A) (A) (A) (A) (A) (A) (A) (A) (A) (A) (A)
                 (A) (A) (A) (A) (A) (A) (A) (A) (A) (A) (A) (A)
                 (A) (A) (A) (A) (A) (A) (A) (A) (A) (A) (A) (A)
                 (A) (A) (A) (A) (A) (A) (A) (A) (A) (A) (A) (A)
                 (A) (A) (A) (A) (A) (A) (A) (A) (A) (A) (A) (A)
                 (A) (A) (A) (A) (A) (A) (A) (A) (A) (A) (A) (A)
                 (A) (A) (A) (A) (A) (A) (A) (A) (A) (A) (A) (A)
 The electronic state is 1-A.
 Alpha  occ. eigenvalues --  -20.53089 -20.53024 -20.52617 -20.52243 -15.59079
 Alpha  occ. eigenvalues --  -15.58952 -15.58522 -15.58319 -11.35534 -11.35356
 Alpha  occ. eigenvalues --  -11.35272 -11.35015 -11.30033 -11.29782 -11.25995
 Alpha  occ. eigenvalues --  -11.25912 -11.24046 -11.23728 -11.23521 -11.23244
 Alpha  occ. eigenvalues --  -11.23186 -11.23135 -11.23059 -11.23013 -11.22964
 Alpha  occ. eigenvalues --  -11.22757 -11.22702 -11.22640  -1.38018  -1.37813
 Alpha  occ. eigenvalues --   -1.36965  -1.36741  -1.23052  -1.22881  -1.22660
 Alpha  occ. eigenvalues --   -1.22515  -1.11105  -1.09362  -1.07362  -1.04449
 Alpha  occ. eigenvalues --   -1.00582  -0.99014  -0.98653  -0.95327  -0.94980
 Alpha  occ. eigenvalues --   -0.94573  -0.92118  -0.87462  -0.85796  -0.82313
 Alpha  occ. eigenvalues --   -0.79976  -0.79198  -0.79071  -0.75610  -0.75465
 Alpha  occ. eigenvalues --   -0.72174  -0.71809  -0.71270  -0.68030  -0.67572
 Alpha  occ. eigenvalues --   -0.66583  -0.65388  -0.64594  -0.63176  -0.63153
 Alpha  occ. eigenvalues --   -0.62724  -0.62294  -0.62064  -0.61833  -0.61379
 Alpha  occ. eigenvalues --   -0.60973  -0.59607  -0.59442  -0.58730  -0.57990
 Alpha  occ. eigenvalues --   -0.57555  -0.56878  -0.56829  -0.56361  -0.55607
 Alpha  occ. eigenvalues --   -0.55048  -0.54997  -0.54756  -0.54152  -0.53526
 Alpha  occ. eigenvalues --   -0.53184  -0.52888  -0.52491  -0.51867  -0.51513
 Alpha  occ. eigenvalues --   -0.51373  -0.50269  -0.50005  -0.48626  -0.48269
 Alpha  occ. eigenvalues --   -0.47671  -0.47511  -0.47464  -0.45038  -0.42229
 Alpha  occ. eigenvalues --   -0.42071  -0.41418  -0.41163  -0.39224  -0.39076
 Alpha  occ. eigenvalues --   -0.38867  -0.38510  -0.34567
 Alpha virt. eigenvalues --    0.16388   0.18375   0.18722   0.19368   0.19572
 Alpha virt. eigenvalues --    0.20566   0.20972   0.22764   0.23106   0.23559
 Alpha virt. eigenvalues --    0.24283   0.25442   0.25973   0.26339   0.26434
 Alpha virt. eigenvalues --    0.27725   0.28107   0.28238   0.28710   0.29187
 Alpha virt. eigenvalues --    0.29440   0.29679   0.30424   0.30839   0.30937
 Alpha virt. eigenvalues --    0.31128   0.31463   0.31761   0.32088   0.32509
 Alpha virt. eigenvalues --    0.32907   0.33198   0.33495   0.34007   0.34427
 Alpha virt. eigenvalues --    0.34814   0.35504   0.35746   0.36472   0.36790
 Alpha virt. eigenvalues --    0.37454   0.37824   0.38208   0.38396   0.38935
 Alpha virt. eigenvalues --    0.39840   0.40750   0.41116   0.41531   0.42081
 Alpha virt. eigenvalues --    0.43167   0.44623   0.45254   0.45467   0.46210
 Alpha virt. eigenvalues --    0.47604   0.47723   0.48344   0.50676   0.51401
 Alpha virt. eigenvalues --    0.53594   0.55509   0.55762   0.59458   0.59760
 Alpha virt. eigenvalues --    0.60102   0.60932   0.61851   0.69187   0.69954
 Alpha virt. eigenvalues --    0.70364   0.71511   0.71954   0.73030   0.73455
 Alpha virt. eigenvalues --    0.73614   0.74255   0.74917   0.75360   0.76095
 Alpha virt. eigenvalues --    0.76316   0.76816   0.76923   0.77165   0.77690
 Alpha virt. eigenvalues --    0.78483   0.79839   0.80650   0.80966   0.81970
 Alpha virt. eigenvalues --    0.82491   0.83453   0.84478   0.85254   0.85490
 Alpha virt. eigenvalues --    0.86740   0.88006   0.88467   0.88999   0.89908
 Alpha virt. eigenvalues --    0.90110   0.91121   0.92081   0.93198   0.93233
 Alpha virt. eigenvalues --    0.94069   0.94637   0.95794   0.96244   0.96760
 Alpha virt. eigenvalues --    0.97031   0.98420   0.99179   0.99381   0.99651
 Alpha virt. eigenvalues --    1.00319   1.01163   1.01546   1.02627   1.02960
 Alpha virt. eigenvalues --    1.04035   1.04423   1.05571   1.06534   1.06948
 Alpha virt. eigenvalues --    1.07712   1.08597   1.09475   1.09808   1.10674
 Alpha virt. eigenvalues --    1.11936   1.12218   1.12340   1.12537   1.12902
 Alpha virt. eigenvalues --    1.13031   1.13839   1.14073   1.14296   1.14489
 Alpha virt. eigenvalues --    1.14739   1.15124   1.15243   1.15587   1.16078
 Alpha virt. eigenvalues --    1.16440   1.17551   1.17936   1.18354   1.18888
 Alpha virt. eigenvalues --    1.19100   1.19451   1.19784   1.19949   1.20331
 Alpha virt. eigenvalues --    1.20816   1.20930   1.21438   1.21584   1.21899
 Alpha virt. eigenvalues --    1.22328   1.22837   1.23417   1.23608   1.24213
 Alpha virt. eigenvalues --    1.24718   1.25431   1.26171   1.26471   1.27613
 Alpha virt. eigenvalues --    1.28500   1.29006   1.29161   1.30696   1.31235
 Alpha virt. eigenvalues --    1.32283   1.32694   1.34342   1.34708   1.35104
 Alpha virt. eigenvalues --    1.37574   1.38254   1.38857   1.39570   1.40461
 Alpha virt. eigenvalues --    1.42333   1.42702   1.43446   1.44338   1.44948
 Alpha virt. eigenvalues --    1.47199   1.49374   1.50434   1.51035   1.52152
 Alpha virt. eigenvalues --    1.54016   1.55849   1.58265   1.58662   1.60641
 Alpha virt. eigenvalues --    1.60905   1.63954   1.66026   1.66997   1.68457
 Alpha virt. eigenvalues --    1.70686   1.71239   1.71525   1.72191   1.72849
 Alpha virt. eigenvalues --    1.74078   1.74192   1.77248   1.78053   1.78433
 Alpha virt. eigenvalues --    1.79988   1.80676   1.83914   1.85729   1.86092
 Alpha virt. eigenvalues --    1.88425   1.89606   1.91403   1.92176   1.94223
 Alpha virt. eigenvalues --    1.96402   1.96880   1.98298   1.98604   2.01886
 Alpha virt. eigenvalues --    2.02436   2.03425   2.04907   2.05629   2.06386
 Alpha virt. eigenvalues --    2.06513   2.08257   2.08302   2.09751   2.09940
 Alpha virt. eigenvalues --    2.10304   2.11993   2.13283   2.14104   2.15000
 Alpha virt. eigenvalues --    2.15359   2.16113   2.16964   2.17823   2.18601
 Alpha virt. eigenvalues --    2.19199   2.19617   2.20283   2.20599   2.21522
 Alpha virt. eigenvalues --    2.22993   2.23956   2.24476   2.24981   2.26102
 Alpha virt. eigenvalues --    2.26719   2.27343   2.28184   2.28548   2.28967
 Alpha virt. eigenvalues --    2.30366   2.31349   2.31852   2.32536   2.33710
 Alpha virt. eigenvalues --    2.34479   2.35023   2.36147   2.36298   2.36808
 Alpha virt. eigenvalues --    2.38440   2.39000   2.41228   2.41578   2.42001
 Alpha virt. eigenvalues --    2.43790   2.45513   2.45641   2.47212   2.49136
 Alpha virt. eigenvalues --    2.49672   2.51236   2.52605   2.53788   2.54409
 Alpha virt. eigenvalues --    2.55075   2.57040   2.57481   2.58300   2.58681
 Alpha virt. eigenvalues --    2.60047   2.60707   2.61376   2.62534   2.62761
 Alpha virt. eigenvalues --    2.64351   2.65446   2.66629   2.67850   2.68556
 Alpha virt. eigenvalues --    2.69831   2.70720   2.71166   2.72427   2.73174
 Alpha virt. eigenvalues --    2.73552   2.74825   2.75418   2.77092   2.77529
 Alpha virt. eigenvalues --    2.79009   2.80355   2.81126   2.82196   2.84702
 Alpha virt. eigenvalues --    2.86475   2.89149   2.90166   2.92674   2.93145
 Alpha virt. eigenvalues --    2.94058   2.94650   2.95709   2.97489   2.99635
 Alpha virt. eigenvalues --    3.00068   3.03293   3.04446   3.05812   3.06113
 Alpha virt. eigenvalues --    3.07059   3.09731   3.11412   3.13409   3.13939
 Alpha virt. eigenvalues --    3.15977   3.17306   3.20312   3.25874   3.26316
 Alpha virt. eigenvalues --    3.29491   3.29736   3.37614   3.38086   3.38705
 Alpha virt. eigenvalues --    3.38855   3.39334   3.47681   3.47715   3.53609
 Alpha virt. eigenvalues --    3.53871   4.33830   4.34135   4.46688   4.46915
 Alpha virt. eigenvalues --    4.49845   4.51018   4.53878   4.56172   4.58967
 Alpha virt. eigenvalues --    4.62365   4.62859   4.63019   4.66561   4.69479
 Alpha virt. eigenvalues --    4.69664   4.72570   4.74022   4.81876   4.83756
 Alpha virt. eigenvalues --    4.85650   4.86697   4.92323   4.93467   4.95604
 Alpha virt. eigenvalues --    4.96520   4.99634   5.17453   5.18739
          Condensed to atoms (all electrons):
 Mulliken atomic charges:
              1
     1  C   -0.276925
     2  N   -0.798092
     3  C    0.803947
     4  O   -0.648577
     5  C    0.087151
     6  C   -0.485978
     7  C   -0.342363
     8  C   -0.295409
     9  C   -0.358120
    10  C   -0.175902
    11  C   -0.178635
    12  C   -0.354726
    13  C   -0.304262
    14  C   -0.324184
    15  C    0.102753
    16  C   -0.515599
    17  N   -0.788787
    18  C    0.772360
    19  C   -0.586872
    20  O   -0.622083
    21  C    0.794773
    22  O   -0.646152
    23  N   -0.795978
    24  C   -0.276647
    25  N   -0.785067
    26  C    0.774137
    27  C   -0.587996
    28  O   -0.625519
    29  H    0.166500
    30  H    0.177633
    31  H    0.206771
    32  H    0.392810
    33  H    0.179054
    34  H    0.179758
    35  H    0.190236
    36  H    0.147789
    37  H    0.223330
    38  H    0.183065
    39  H    0.157544
    40  H    0.182811
    41  H    0.173502
    42  H    0.171254
    43  H    0.175828
    44  H    0.165348
    45  H    0.176689
    46  H    0.177183
    47  H    0.171067
    48  H    0.184935
    49  H    0.170512
    50  H    0.148855
    51  H    0.199758
    52  H    0.221142
    53  H    0.391139
    54  H    0.213212
    55  H    0.172168
    56  H    0.207867
    57  H    0.392632
    58  H    0.206488
    59  H    0.177618
    60  H    0.166554
    61  H    0.391915
    62  H    0.214894
    63  H    0.207090
    64  H    0.173801
 Sum of Mulliken atomic charges =   0.00000
 Mulliken charges with hydrogens summed into heavy atoms:
              1
     1  C    0.273980
     2  N   -0.405281
     3  C    0.803947
     4  O   -0.648577
     5  C    0.087151
     6  C    0.063070
     7  C    0.028756
     8  C    0.045199
     9  C   -0.001807
    10  C   -0.004648
    11  C   -0.002807
    12  C   -0.012689
    13  C    0.043987
    14  C    0.031262
    15  C    0.102753
    16  C    0.054156
    17  N   -0.397648
    18  C    0.772360
    19  C    0.006375
    20  O   -0.622083
    21  C    0.794773
    22  O   -0.646152
    23  N   -0.403346
    24  C    0.274013
    25  N   -0.393152
    26  C    0.774137
    27  C    0.007789
    28  O   -0.625519
 Sum of Mulliken charges with hydrogens summed into heavy atoms =   0.00000
 DipInt: DoE/N= T F RetVal/Mat= T F Init=T NMatP=  1 IDeriv=0 Min/MaxMlt=  0  4
 Entering OneElI...
 OneElI was handed    32936476 working-precision words.
 Multipole integrals L=0 to 4 MinM= 0 MaxM= 0.
 Requested accuracy = 0.1000D-12
 PrsmSu:  NPrtUS=   1 ThrOK=F IAlg=1
 PRISM was handed    32102869 working-precision words and  9667 shell-pairs
 IPart=  0 NShTot=        9667 NBatch=          72 AvBLen=       134.3
 Electronic moments (au):
       -216.00000000          0.68529651          0.65097531          1.03992077
     -21504.22802006      -2352.70305549       -981.22355519         -5.14663414
          7.25039201        -10.32198025       4638.01028279      -1823.12747901
        -13.04210167        433.42922055       -227.18982092       1638.81220726
       -220.16489795        806.81669573       1263.30037749      -6042.02098299
   -2977011.75740568     -68670.38613970     -12878.99702263     -69456.25370794
      17901.10534650       6208.76080002       2962.61574886      -1328.65321617
        -34.58681480    -326926.41674650     -98599.48806815     -10859.37429313
       4610.02951761       5572.14834378       6034.22824379
 Electronic spatial extent (au):  <R**2>=          24838.1546
 DipInt: DoE/N= F T RetVal/Mat= T F Init=T NMatP=  1 IDeriv=0 Min/MaxMlt=  0  4
 Nuclear    moments (au):
        216.00000000          0.00000000          0.00000000          0.00000000
      21334.53736051       2237.94270904        852.69303634          0.00000000
          0.00000000          0.00000000      -4444.53173748       1859.18058174
         26.97032062       -334.57195365        238.02267816      -1516.55187620
        156.79419036       -796.40457586      -1276.92675798       6142.10953873
    2890396.12780513      61042.42006932       9455.60355378      67934.11220659
     -18154.40211527      -6319.21263298      -3016.75628357       1554.96274324
        -75.25169713     314921.02568359      85562.12121958       8959.39117391
      -6113.05188200      -5700.37276240      -6109.67093921
 Total      moments (au):
          0.00000000          0.68529651          0.65097531          1.03992077
       -169.69065955       -114.76034645       -128.53051885         -5.14663414
          7.25039201        -10.32198025        193.47854531         36.05310273
         13.92821895         98.85726690         10.83285723        122.26033106
        -63.37070758         10.41211987        -13.62638049        100.08855573
     -86615.62960055      -7627.96607038      -3423.39346885      -1522.14150135
       -253.29676878       -110.45183296        -54.14053471        226.30952708
       -109.83851193     -12005.39106291     -13037.36684857      -1899.98311921
      -1503.02236439       -128.22441862        -75.44269542
 Traceless Quadrup. (au):
        -32.03015127         22.90016183          9.12998943         -5.14663414
          7.25039201        -10.32198025
 Charge=              0.0000 electrons
 Dipole moment (field-independent basis, Debye):
    X=              1.7418    Y=              1.6546    Z=              2.6432  Tot=              3.5719
 Quadrupole moment (field-independent basis, Debye-Ang):
   XX=           -228.2397   YY=           -154.3566   ZZ=           -172.8779
   XY=             -6.9224   XZ=              9.7520   YZ=            -13.8834
 Traceless Quadrupole moment (field-independent basis, Debye-Ang):
   XX=            -43.0816   YY=             30.8015   ZZ=             12.2801
   XY=             -6.9224   XZ=              9.7520   YZ=            -13.8834
 Octapole moment (field-independent basis, Debye-Ang**2):
  XXX=            137.7106  YYY=             25.6612  ZZZ=              9.9136  XYY=             70.3628
  XXY=              7.7104  XXZ=             87.0202  XZZ=            -45.1048  YZZ=              7.4109
  YYZ=             -9.6987  XYZ=             71.2392
 Hexadecapole moment (field-independent basis, Debye-Ang**3):
 XXXX=         -32623.5973 YYYY=          -2873.0576 ZZZZ=          -1289.4141 XXXY=           -573.3114
 XXXZ=            -95.4037 YYYX=            -41.6015 YYYZ=            -20.3919 ZZZX=             85.2390
 ZZZY=            -41.3704 XXYY=          -4521.8057 XXZZ=          -4910.4972 YYZZ=           -715.6247
 XXYZ=           -566.1103 YYXZ=            -48.2955 ZZXY=            -28.4153
 N-N= 2.601518382027D+03 E-N=-8.233515774710D+03  KE= 1.292506308002D+03
 Entering OneElI...
 OneElI was handed    32450256 working-precision words.
 Calculate electrostatic properties
    NBasis =   492  MinDer = 0  MaxDer = 0
    NGrid  =    64  NMatD  =   1
 Requested accuracy = 0.1000D-12
 PrsmSu:  NPrtUS=   1 ThrOK=F IAlg=1
 PRISM was handed    31708841 working-precision words and  8221 shell-pairs
 IPart=  0 NShTot=      526144 NBatch=        8221 AvBLen=        64.0
 --------------------------------------------------------
       Center         ----      EFG at Nuclei      ----
                      3XX-RR        3YY-RR        3ZZ-RR
 --------------------------------------------------------
     1   Atom       -0.029711     -0.091769      0.121480
     2   Atom       -0.479880     -0.508280      0.988160
     3   Atom        0.368242      0.188889     -0.557131
     4   Atom       -0.722592      1.407988     -0.685396
     5   Atom        0.086270     -0.203530      0.117259
     6   Atom        0.031555      0.040775     -0.072329
     7   Atom       -0.068994     -0.010756      0.079750
     8   Atom       -0.023594      0.009231      0.014364
     9   Atom        0.007123     -0.015427      0.008304
    10   Atom        0.025676      0.094133     -0.119809
    11   Atom        0.027022      0.088068     -0.115090
    12   Atom        0.008565      0.000089     -0.008655
    13   Atom       -0.022798     -0.001763      0.024561
    14   Atom       -0.047607      0.028450      0.019157
    15   Atom        0.063224     -0.113923      0.050699
    16   Atom        0.063634      0.017002     -0.080636
    17   Atom        0.304231      0.169173     -0.473405
    18   Atom       -0.149986     -0.203340      0.353326
    19   Atom        0.017730      0.005525     -0.023255
    20   Atom        0.236815      0.377695     -0.614510
    21   Atom       -0.108695      0.089085      0.019610
    22   Atom       -0.608428      1.134567     -0.526138
    23   Atom        0.441375     -0.223858     -0.217517
    24   Atom       -0.011063     -0.144133      0.155197
    25   Atom        0.299657      0.010732     -0.310390
    26   Atom       -0.291273      0.101253      0.190020
    27   Atom        0.013378     -0.042696      0.029318
    28   Atom       -0.468982      0.442703      0.026279
    29   Atom        0.084517     -0.214105      0.129588
    30   Atom        0.131719      0.145432     -0.277150
    31   Atom       -0.169929      0.130544      0.039385
    32   Atom       -0.350977      0.120952      0.230025
    33   Atom       -0.189084      0.142086      0.046998
    34   Atom        0.090992     -0.185240      0.094248
    35   Atom       -0.016230     -0.089150      0.105380
    36   Atom        0.090883     -0.168150      0.077267
    37   Atom        0.124150      0.124805     -0.248955
    38   Atom        0.091619     -0.198970      0.107351
    39   Atom        0.112877      0.145510     -0.258387
    40   Atom        0.119946      0.138435     -0.258381
    41   Atom       -0.031353     -0.118262      0.149615
    42   Atom        0.084027     -0.182438      0.098411
    43   Atom        0.091334     -0.230330      0.138996
    44   Atom        0.122057      0.112840     -0.234897
    45   Atom       -0.016541     -0.129520      0.146060
    46   Atom        0.085916     -0.136927      0.051011
    47   Atom        0.115636      0.114058     -0.229694
    48   Atom        0.086892     -0.112682      0.025790
    49   Atom        0.125140      0.100698     -0.225838
    50   Atom       -0.034315     -0.007026      0.041341
    51   Atom        0.095424     -0.235013      0.139589
    52   Atom       -0.162870      0.145928      0.016942
    53   Atom        0.195029      0.147024     -0.342053
    54   Atom       -0.151925      0.050691      0.101234
    55   Atom       -0.036607      0.143468     -0.106861
    56   Atom        0.125346     -0.226207      0.100861
    57   Atom        0.094122      0.136711     -0.230833
    58   Atom        0.142094      0.073056     -0.215150
    59   Atom       -0.209374      0.105717      0.103656
    60   Atom        0.077022     -0.061307     -0.015715
    61   Atom       -0.126238      0.133845     -0.007607
    62   Atom       -0.230345      0.118572      0.111773
    63   Atom        0.060056     -0.000455     -0.059602
    64   Atom        0.152688      0.022309     -0.174998
 --------------------------------------------------------
                        XY            XZ            YZ
 --------------------------------------------------------
     1   Atom       -0.200736      0.072076      0.054441
     2   Atom       -0.006098      0.016192      0.154841
     3   Atom        0.046911     -0.123094     -0.066279
     4   Atom        0.749947     -0.040476     -0.238608
     5   Atom        0.043016      0.058847     -0.086557
     6   Atom        0.006962      0.013836      0.004767
     7   Atom        0.041373     -0.054991      0.008665
     8   Atom       -0.037745     -0.024062      0.025265
     9   Atom        0.019134     -0.016558     -0.016085
    10   Atom       -0.030089     -0.251555     -0.015308
    11   Atom       -0.018744     -0.245481     -0.012810
    12   Atom       -0.018069     -0.008910      0.011993
    13   Atom        0.024298     -0.027801     -0.015340
    14   Atom       -0.026995     -0.036042     -0.027981
    15   Atom       -0.054172      0.080700      0.159450
    16   Atom       -0.003303      0.055152     -0.021696
    17   Atom       -0.771696      0.062026      0.008059
    18   Atom        0.371520      0.082275     -0.165048
    19   Atom       -0.007684      0.013913      0.042756
    20   Atom        1.141650     -0.635248     -0.521030
    21   Atom       -0.345459     -0.346035     -0.124534
    22   Atom       -0.594473      0.377937     -0.804373
    23   Atom        0.527123      0.500585      0.299902
    24   Atom        0.191433     -0.012331      0.035161
    25   Atom        0.677396     -0.333274     -0.335564
    26   Atom       -0.429696      0.132390      0.008298
    27   Atom        0.034477      0.005757      0.003635
    28   Atom       -0.608410     -0.525363      1.181714
    29   Atom        0.137216      0.046452     -0.102402
    30   Atom       -0.009391      0.082195     -0.005485
    31   Atom        0.055971     -0.184651      0.045404
    32   Atom        0.136149     -0.070516      0.029721
    33   Atom        0.056182     -0.174034      0.027980
    34   Atom        0.146420      0.053275     -0.120677
    35   Atom       -0.200983      0.077871      0.094313
    36   Atom        0.117058      0.055207     -0.156343
    37   Atom       -0.020130      0.053290      0.096989
    38   Atom        0.128223      0.044526     -0.125299
    39   Atom       -0.017076      0.104986      0.049031
    40   Atom       -0.008471      0.103394      0.043655
    41   Atom       -0.212553      0.012533      0.014142
    42   Atom       -0.144903      0.071927      0.138348
    43   Atom        0.147569      0.042721     -0.079243
    44   Atom        0.024757      0.096571     -0.111329
    45   Atom        0.208103     -0.021862      0.031457
    46   Atom       -0.124861      0.072451      0.165098
    47   Atom        0.033659      0.094853     -0.116644
    48   Atom       -0.116522      0.072699      0.177728
    49   Atom        0.022317      0.060826     -0.133207
    50   Atom       -0.167717      0.140482      0.121232
    51   Atom        0.149962      0.004571     -0.007157
    52   Atom        0.015124     -0.194507     -0.000747
    53   Atom       -0.041169      0.023011     -0.146662
    54   Atom        0.172639      0.123416     -0.063555
    55   Atom        0.018996     -0.216794      0.035578
    56   Atom       -0.101112     -0.031036     -0.128684
    57   Atom        0.094916      0.241278     -0.104443
    58   Atom        0.028438      0.036575     -0.160350
    59   Atom       -0.103763     -0.138980     -0.043766
    60   Atom       -0.110041      0.114222      0.187779
    61   Atom        0.165251     -0.252234      0.068500
    62   Atom       -0.096124      0.128853      0.032622
    63   Atom       -0.109728     -0.137107     -0.178277
    64   Atom        0.020501     -0.023491      0.193576
 --------------------------------------------------------


 ---------------------------------------------------------------------------------
              Nuclear Quadrupole in Principal Axis System
 ---------------------------------------------------------------------------------

       Atom             a.u.   MegaHertz   Gauss  10(-4) cm-1        Axes

              Baa    -0.2831   -37.995   -13.558   -12.674  0.6432  0.7354 -0.2135
     1 C(13)  Bbb     0.1227    16.467     5.876     5.493 -0.4199  0.5719  0.7047
              Bcc     0.1604    21.529     7.682     7.181  0.6403 -0.3636  0.6766
 
              Baa    -0.5254   -20.265    -7.231    -6.760  0.1675  0.9806 -0.1021
     2 N(14)  Bbb    -0.4787   -18.464    -6.588    -6.159  0.9858 -0.1677  0.0068
              Bcc     1.0042    38.729    13.819    12.919  0.0104  0.1018  0.9948
 
              Baa    -0.5779   -77.546   -27.670   -25.867  0.1248  0.0779  0.9891
     3 C(13)  Bbb     0.1788    23.999     8.563     8.005 -0.2660  0.9631 -0.0422
              Bcc     0.3990    53.548    19.107    17.862  0.9559  0.2578 -0.1409
 
              Baa    -0.9644    69.787    24.902    23.278  0.9417 -0.3107 -0.1290
     4 O(17)  Bbb    -0.7054    51.045    18.214    17.027  0.1539  0.0568  0.9865
              Bcc     1.6699  -120.832   -43.116   -40.305  0.2991  0.9488 -0.1013
 
              Baa    -0.2354   -31.584   -11.270   -10.535 -0.1749  0.9490  0.2621
     5 C(13)  Bbb     0.0670     8.994     3.209     3.000  0.8296  0.2854 -0.4800
              Bcc     0.1683    22.590     8.061     7.535  0.5303 -0.1335  0.8372
 
              Baa    -0.0743    -9.966    -3.556    -3.324 -0.1274 -0.0334  0.9913
     6 C(13)  Bbb     0.0287     3.855     1.375     1.286  0.8462 -0.5250  0.0911
              Bcc     0.0455     6.111     2.181     2.039  0.5174  0.8505  0.0951
 
              Baa    -0.1057   -14.186    -5.062    -4.732  0.8713 -0.4049  0.2773
     7 C(13)  Bbb     0.0076     1.023     0.365     0.341  0.3696  0.9131  0.1721
              Bcc     0.0981    13.164     4.697     4.391 -0.3228 -0.0475  0.9453
 
              Baa    -0.0491    -6.594    -2.353    -2.199  0.8570  0.4997  0.1259
     8 C(13)  Bbb    -0.0109    -1.457    -0.520    -0.486  0.2202 -0.5761  0.7871
              Bcc     0.0600     8.051     2.873     2.686 -0.4659  0.6469  0.6038
 
              Baa    -0.0277    -3.714    -1.325    -1.239 -0.3863  0.8952  0.2224
     9 C(13)  Bbb    -0.0086    -1.153    -0.411    -0.385  0.6610  0.1006  0.7436
              Bcc     0.0363     4.867     1.737     1.624  0.6433  0.4343 -0.6306
 
              Baa    -0.3112   -41.760   -14.901   -13.930  0.6009  0.0747  0.7958
    10 C(13)  Bbb     0.0946    12.691     4.529     4.233  0.0530  0.9897 -0.1329
              Bcc     0.2166    29.069    10.372     9.696  0.7975 -0.1221 -0.5908
 
              Baa    -0.3008   -40.362   -14.402   -13.463  0.6005  0.0552  0.7977
    11 C(13)  Bbb     0.0888    11.920     4.253     3.976  0.0142  0.9967 -0.0797
              Bcc     0.2120    28.442    10.149     9.487  0.7995 -0.0592 -0.5978
 
              Baa    -0.0179    -2.398    -0.856    -0.800  0.2547  0.7010 -0.6661
    12 C(13)  Bbb    -0.0107    -1.432    -0.511    -0.478  0.6578  0.3794  0.6507
              Bcc     0.0285     3.830     1.367     1.277  0.7089 -0.6039 -0.3645
 
              Baa    -0.0429    -5.750    -2.052    -1.918  0.8702 -0.4159  0.2642
    13 C(13)  Bbb    -0.0066    -0.883    -0.315    -0.295  0.2049  0.7931  0.5736
              Bcc     0.0494     6.633     2.367     2.213 -0.4481 -0.4450  0.7753
 
              Baa    -0.0760   -10.193    -3.637    -3.400  0.8461  0.3308  0.4179
    14 C(13)  Bbb     0.0237     3.178     1.134     1.060 -0.5313  0.5854  0.6124
              Bcc     0.0523     7.016     2.503     2.340  0.0421  0.7402 -0.6711
 
              Baa    -0.2373   -31.849   -11.364   -10.624  0.2853  0.8024 -0.5241
    15 C(13)  Bbb     0.0697     9.355     3.338     3.121  0.8541 -0.4610 -0.2407
              Bcc     0.1676    22.494     8.026     7.503  0.4348  0.3790  0.8169
 
              Baa    -0.1025   -13.754    -4.908    -4.588 -0.3080  0.1617  0.9375
    16 C(13)  Bbb     0.0186     2.500     0.892     0.834  0.1979  0.9748 -0.1031
              Bcc     0.0839    11.255     4.016     3.754  0.9306 -0.1538  0.3323
 
              Baa    -0.5636   -21.737    -7.756    -7.251  0.6042  0.6415 -0.4727
    17 N(14)  Bbb    -0.4488   -17.310    -6.177    -5.774  0.3016  0.3651  0.8808
              Bcc     1.0124    39.048    13.933    13.025  0.7376 -0.6747  0.0271
 
              Baa    -0.5827   -78.191   -27.900   -26.082 -0.6602  0.7276  0.1863
    18 C(13)  Bbb     0.1830    24.558     8.763     8.192  0.7489  0.6186  0.2377
              Bcc     0.3997    53.633    19.137    17.890 -0.0577 -0.2965  0.9533
 
              Baa    -0.0573    -7.689    -2.744    -2.565 -0.2059 -0.5677  0.7971
    19 C(13)  Bbb     0.0208     2.795     0.997     0.932  0.9716 -0.2157  0.0974
              Bcc     0.0365     4.894     1.746     1.632  0.1167  0.7945  0.5960
 
              Baa    -0.9716    70.303    25.086    23.451  0.6099 -0.2223  0.7606
    20 O(17)  Bbb    -0.7626    55.184    19.691    18.407 -0.4434  0.6998  0.5601
              Bcc     1.7342  -125.487   -44.777   -41.858  0.6568  0.6789 -0.3282
 
              Baa    -0.5796   -77.772   -27.751   -25.942  0.7199  0.4675  0.5130
    21 C(13)  Bbb     0.1769    23.741     8.471     7.919 -0.0995 -0.6619  0.7430
              Bcc     0.4026    54.031    19.280    18.023  0.6869 -0.5859 -0.4300
 
              Baa    -0.9585    69.359    24.749    23.136 -0.6320  0.1150  0.7664
    22 O(17)  Bbb    -0.7129    51.586    18.407    17.207  0.7180  0.4589  0.5233
              Bcc     1.6714  -120.945   -43.156   -40.343 -0.2915  0.8810 -0.3726
 
              Baa    -0.5260   -20.286    -7.239    -6.767 -0.2229  0.8546 -0.4691
    23 N(14)  Bbb    -0.4833   -18.641    -6.652    -6.218 -0.5739  0.2739  0.7718
              Bcc     1.0093    38.927    13.890    12.985  0.7880  0.4412  0.4294
 
              Baa    -0.2832   -38.001   -13.560   -12.676 -0.5759  0.8134 -0.0814
    24 C(13)  Bbb     0.1221    16.388     5.848     5.466  0.7977  0.5373 -0.2739
              Bcc     0.1611    21.613     7.712     7.209  0.1790  0.2227  0.9583
 
              Baa    -0.5643   -21.766    -7.767    -7.260 -0.4313  0.7763  0.4598
    25 N(14)  Bbb    -0.4505   -17.375    -6.200    -5.796  0.5363 -0.1892  0.8225
              Bcc     1.0148    39.140    13.966    13.056  0.7255  0.6013 -0.3347
 
              Baa    -0.5848   -78.478   -28.003   -26.178  0.8373  0.5262 -0.1487
    26 C(13)  Bbb     0.1860    24.964     8.908     8.327 -0.0498  0.3442  0.9376
              Bcc     0.3988    53.514    19.095    17.850 -0.5445  0.7776 -0.3144
 
              Baa    -0.0591    -7.931    -2.830    -2.646 -0.4289  0.9033 -0.0092
    27 C(13)  Bbb     0.0228     3.058     1.091     1.020 -0.6308 -0.2922  0.7188
              Bcc     0.0363     4.873     1.739     1.626  0.6466  0.3141  0.6951
 
              Baa    -0.9660    69.898    24.941    23.316  0.0496 -0.6292  0.7756
    28 O(17)  Bbb    -0.7624    55.169    19.686    18.402  0.9378  0.2965  0.1805
              Bcc     1.7284  -125.067   -44.627   -41.718 -0.3435  0.7185  0.6048
 
              Baa    -0.2971  -158.534   -56.569   -52.881 -0.3545  0.8998  0.2545
    29 H(1)   Bbb     0.1365    72.810    25.980    24.287  0.8772  0.4142 -0.2426
              Bcc     0.1607    85.724    30.588    28.594  0.3237 -0.1373  0.9361
 
              Baa    -0.2931  -156.376   -55.799   -52.161 -0.1898  0.0082  0.9818
    30 H(1)   Bbb     0.1362    72.683    25.935    24.244  0.6580  0.7432  0.1210
              Bcc     0.1569    83.693    29.864    27.917  0.7287 -0.6690  0.1465
 
              Baa    -0.2896  -154.517   -55.135   -51.541  0.8497 -0.1672  0.5000
    31 H(1)   Bbb     0.1337    71.329    25.452    23.793  0.4332  0.7621 -0.4812
              Bcc     0.1559    83.188    29.684    27.749 -0.3006  0.6255  0.7200
 
              Baa    -0.3966  -211.613   -75.509   -70.586  0.9584 -0.2590  0.1201
    32 H(1)   Bbb     0.1561    83.296    29.722    27.785  0.2732  0.9541 -0.1229
              Bcc     0.2405   128.317    45.787    42.802 -0.0828  0.1507  0.9851
 
              Baa    -0.2904  -154.962   -55.294   -51.690  0.8746 -0.1436  0.4630
    33 H(1)   Bbb     0.1390    74.186    26.472    24.746 -0.4477  0.1271  0.8851
              Bcc     0.1514    80.775    28.823    26.944  0.1859  0.9814 -0.0469
 
              Baa    -0.2933  -156.493   -55.841   -52.201 -0.3757  0.8689  0.3222
    34 H(1)   Bbb     0.1391    74.202    26.477    24.751  0.0633 -0.3228  0.9443
              Bcc     0.1542    82.291    29.364    27.449  0.9246  0.3752  0.0663
 
              Baa    -0.2944  -157.063   -56.044   -52.391  0.6125  0.7343 -0.2926
    35 H(1)   Bbb     0.1428    76.166    27.178    25.406  0.2426  0.1776  0.9537
[...]
 **** Fit       0.001246
 **** Fit       0.001466
 **** Fit       0.001553
 **** Fit       0.001503
 **** Fit       0.001312
 **** Fit       0.000968
 **** Fit       0.000456
 **** Fit      -0.000246
 **** Fit      -0.001166
 **** Fit      -0.002334
 **** Fit      -0.003768
 **** Fit      -0.001038
 **** Fit      -0.000367
 **** Fit       0.000096
 **** Fit       0.000365
 **** Fit       0.000446
 **** Fit       0.000336
 **** Fit       0.000026
 **** Fit      -0.000502
 **** Fit      -0.001275
 **** Fit      -0.002333
 **** Fit      -0.003732
 **** Fit      -0.005546
 **** Fit      -0.007863
 **** Fit      -0.003620
 **** Fit      -0.002527
 **** Fit      -0.001745
 **** Fit      -0.001240
 **** Fit      -0.000991
 **** Fit      -0.000996
 **** Fit      -0.001263
 **** Fit      -0.001814
 **** Fit      -0.002689
 **** Fit      -0.003954
 **** Fit      -0.005720
 **** Fit      -0.008177
 **** Fit      -0.009009
 **** Fit      -0.006708
 **** Fit      -0.005047
 **** Fit      -0.003892
 **** Fit      -0.003167
 **** Fit      -0.002834
 **** Fit      -0.002886
 **** Fit      -0.003342
 **** Fit      -0.004258
 **** Fit      -0.005737
 **** Fit      -0.007971
 **** Fit      -0.011320
 **** Fit      -0.014587
 **** Fit      -0.010929
 **** Fit      -0.008396
 **** Fit      -0.006698
 **** Fit      -0.005677
 **** Fit      -0.005260
 **** Fit      -0.005436
 **** Fit      -0.006257
 **** Fit      -0.007855
 **** Fit      -0.010500
 **** Fit      -0.014717
 **** Fit      -0.022738
 **** Fit      -0.016617
 **** Fit      -0.012621
 **** Fit      -0.010125
 **** Fit      -0.008800
 **** Fit      -0.008511
 **** Fit      -0.009285
 **** Fit      -0.011320
 **** Fit      -0.015085
 **** Fit      -0.025054
 **** Fit      -0.018111
 **** Fit      -0.014265
 **** Fit      -0.012852
 **** Fit      -0.013720
 **** Fit      -0.017267
 **** Fit      -0.019740
 **** Fit      -0.019532
 **** Fit      -0.000269
 **** Fit       0.001237
 **** Fit      -0.003622
 **** Fit      -0.001907
 **** Fit      -0.001543
 **** Fit       0.000026
 **** Fit       0.001407
 **** Fit      -0.010935
 **** Fit      -0.008277
 **** Fit      -0.005673
 **** Fit      -0.003418
 **** Fit      -0.002558
 **** Fit      -0.000975
 **** Fit       0.000349
 **** Fit       0.001539
 **** Fit      -0.018274
 **** Fit      -0.013958
 **** Fit      -0.010136
 **** Fit      -0.007009
 **** Fit      -0.004525
 **** Fit      -0.003436
 **** Fit      -0.001799
 **** Fit      -0.000469
 **** Fit       0.000675
 **** Fit       0.001750
 **** Fit      -0.022327
 **** Fit      -0.016427
 **** Fit      -0.011787
 **** Fit      -0.008235
 **** Fit      -0.005524
 **** Fit      -0.004280
 **** Fit      -0.002637
 **** Fit      -0.001322
 **** Fit      -0.000220
 **** Fit       0.000774
 **** Fit      -0.024183
 **** Fit      -0.017682
 **** Fit      -0.012802
 **** Fit      -0.009149
 **** Fit      -0.006390
 **** Fit      -0.005179
 **** Fit      -0.003531
 **** Fit      -0.002221
 **** Fit      -0.001142
 **** Fit      -0.000195
 **** Fit       0.000709
 **** Fit      -0.025178
 **** Fit      -0.018617
 **** Fit      -0.013726
 **** Fit      -0.010066
 **** Fit      -0.007299
 **** Fit      -0.006220
 **** Fit      -0.004519
 **** Fit      -0.003182
 **** Fit      -0.002096
 **** Fit      -0.001162
 **** Fit      -0.000286
 **** Fit      -0.026790
 **** Fit      -0.020130
 **** Fit      -0.015092
 **** Fit      -0.011296
 **** Fit      -0.008419
 **** Fit      -0.007496
 **** Fit      -0.005721
 **** Fit      -0.004342
 **** Fit      -0.003240
 **** Fit      -0.002310
 **** Fit      -0.001449
 **** Fit      -0.028434
 **** Fit      -0.021921
 **** Fit      -0.016780
 **** Fit      -0.012827
 **** Fit      -0.009806
 **** Fit      -0.009118
 **** Fit      -0.007274
 **** Fit      -0.005858
 **** Fit      -0.004748
 **** Fit      -0.003836
 **** Fit      -0.030006
 **** Fit      -0.023805
 **** Fit      -0.018695
 **** Fit      -0.014656
 **** Fit      -0.011524
 **** Fit      -0.011221
 **** Fit      -0.009181
 **** Fit      -0.007668
 **** Fit      -0.006538
 **** Fit      -0.005656
 **** Fit      -0.028368
 **** Fit      -0.022302
 **** Fit      -0.017576
 **** Fit      -0.013955
 **** Fit      -0.013987
 **** Fit      -0.011687
 **** Fit      -0.010086
 **** Fit      -0.009002
 **** Fit      -0.021643
 **** Fit      -0.017207
 **** Fit      -0.017655
 **** Fit      -0.014921
 **** Fit      -0.013291
 **** Fit      -0.021874
 **** Fit      -0.022546
 **** Fit      -0.019179
 **** Fit       0.012511
 **** Fit       0.011385
 **** Fit       0.011101
 **** Fit       0.011856
 **** Fit       0.013375
 **** Fit       0.014507
 **** Fit       0.013139
 **** Fit       0.010080
 **** Fit       0.009817
 **** Fit       0.010047
 **** Fit       0.010512
 **** Fit       0.011183
 **** Fit       0.012223
 **** Fit       0.013880
 **** Fit       0.016050
 **** Fit       0.017477
 **** Fit       0.016470
 **** Fit       0.013696
 **** Fit       0.011282
 **** Fit       0.008669
 **** Fit       0.008605
 **** Fit       0.008844
 **** Fit       0.009203
 **** Fit       0.009595
 **** Fit       0.010005
 **** Fit       0.010484
 **** Fit       0.011150
 **** Fit       0.012200
 **** Fit       0.013912
 **** Fit       0.016523
 **** Fit       0.014071
 **** Fit       0.011031
 **** Fit       0.009340
 **** Fit       0.007223
 **** Fit       0.007382
 **** Fit       0.007732
 **** Fit       0.008142
 **** Fit       0.008544
 **** Fit       0.008905
 **** Fit       0.009225
 **** Fit       0.009530
 **** Fit       0.009874
 **** Fit       0.010348
 **** Fit       0.011105
 **** Fit       0.012391
 **** Fit       0.014589
 **** Fit       0.008487
 **** Fit       0.007474
 **** Fit       0.005819
 **** Fit       0.006196
 **** Fit       0.006674
 **** Fit       0.007165
 **** Fit       0.007618
 **** Fit       0.008007
 **** Fit       0.008324
 **** Fit       0.008576
 **** Fit       0.008780
 **** Fit       0.008971
 **** Fit       0.009200
 **** Fit       0.009546
 **** Fit       0.010141
 **** Fit       0.011220
 **** Fit       0.005098
 **** Fit       0.005672
 **** Fit       0.006221
 **** Fit       0.006715
 **** Fit       0.007135
 **** Fit       0.007474
 **** Fit       0.007733
 **** Fit       0.007917
 **** Fit       0.008041
 **** Fit       0.008123
 **** Fit       0.008190
 **** Fit       0.008277
 **** Fit       0.008440
 **** Fit       0.008767
 **** Fit       0.009429
 **** Fit       0.004854
 **** Fit       0.005448
 **** Fit       0.005971
 **** Fit       0.006410
 **** Fit       0.006758
 **** Fit       0.007015
 **** Fit       0.007185
 **** Fit       0.007277
 **** Fit       0.007303
 **** Fit       0.007275
 **** Fit       0.007212
 **** Fit       0.007129
 **** Fit       0.007046
 **** Fit       0.006991
 **** Fit       0.005298
 **** Fit       0.005728
 **** Fit       0.006068
 **** Fit       0.006315
 **** Fit       0.006473
 **** Fit       0.006546
 **** Fit       0.006541
 **** Fit       0.006465
 **** Fit       0.006324
 **** Fit       0.006122
 **** Fit       0.005852
 **** Fit       0.005488
 **** Fit       0.005475
 **** Fit       0.005691
 **** Fit       0.005818
 **** Fit       0.005858
 **** Fit       0.005814
 **** Fit       0.005690
 **** Fit       0.005485
 **** Fit       0.005195
 **** Fit       0.004801
 **** Fit       0.005206
 **** Fit       0.005083
 **** Fit       0.021290
 **** Fit      -0.004524
 **** Fit       0.004654
 **** Fit       0.010832
 **** Fit       0.015055
 **** Fit       0.018044
 **** Fit       0.020231
 **** Fit       0.021787
 **** Fit       0.022711
 **** Fit       0.022949
 **** Fit       0.022481
 **** Fit       0.021368
 **** Fit       0.019727
 **** Fit       0.003768
 **** Fit       0.010193
 **** Fit       0.014663
 **** Fit       0.017802
 **** Fit       0.019987
 **** Fit       0.021405
 **** Fit       0.022130
 **** Fit       0.022195
 **** Fit       0.021655
 **** Fit       0.020611
 **** Fit       0.019208
 **** Fit      -0.004454
 **** Fit       0.004201
 **** Fit       0.010311
 **** Fit       0.014635
 **** Fit       0.017670
 **** Fit       0.019728
 **** Fit       0.020994
 **** Fit       0.021573
 **** Fit       0.021553
 **** Fit       0.021040
 **** Fit       0.020187
 **** Fit       0.019225
 **** Fit       0.005949
 **** Fit       0.011504
 **** Fit       0.015445
 **** Fit       0.018145
 **** Fit       0.019859
 **** Fit       0.020763
 **** Fit       0.021000
 **** Fit       0.020734
 **** Fit       0.020202
 **** Fit       0.013060
 **** Fit       0.016333
 **** Fit       0.018502
 **** Fit       0.019740
 **** Fit       0.020223
 **** Fit       0.020166
 **** Fit      -0.003910
 **** Fit      -0.001510
 **** Fit       0.000436
 **** Fit       0.002012
 **** Fit       0.003297
 **** Fit      -0.009145
 **** Fit      -0.005898
 **** Fit      -0.003226
 **** Fit      -0.001015
 **** Fit       0.000804
 **** Fit       0.002292
 **** Fit       0.003507
 **** Fit       0.004513
 **** Fit      -0.012880
 **** Fit      -0.009022
 **** Fit      -0.005795
 **** Fit      -0.003085
 **** Fit      -0.000827
 **** Fit       0.001037
 **** Fit       0.002560
 **** Fit       0.003800
 **** Fit       0.004818
 **** Fit       0.005683
 **** Fit      -0.017529
 **** Fit      -0.013092
 **** Fit      -0.009242
 **** Fit      -0.005937
 **** Fit      -0.003139
 **** Fit      -0.000802
 **** Fit       0.001128
 **** Fit       0.002708
 **** Fit       0.003996
 **** Fit       0.005054
 **** Fit       0.005947
 **** Fit       0.006748
 **** Fit      -0.022041
 **** Fit      -0.016988
 **** Fit      -0.012412
 **** Fit      -0.008440
 **** Fit      -0.005081
 **** Fit      -0.002282
 **** Fit       0.000024
 **** Fit       0.001911
 **** Fit       0.003449
 **** Fit       0.004706
 **** Fit       0.005750
 **** Fit       0.006654
 **** Fit       0.007497
 **** Fit      -0.018532
 **** Fit      -0.013052
 **** Fit      -0.008496
 **** Fit      -0.004779
 **** Fit      -0.001771
 **** Fit       0.000655
 **** Fit       0.002608
 **** Fit       0.004188
 **** Fit       0.005483
 **** Fit       0.006581
 **** Fit       0.007573
 **** Fit       0.008568
 **** Fit      -0.017362
 **** Fit      -0.011304
 **** Fit      -0.006561
 **** Fit      -0.002849
 **** Fit       0.000068
 **** Fit       0.002376
 **** Fit       0.004221
 **** Fit       0.005732
 **** Fit       0.007025
 **** Fit       0.008221
 **** Fit       0.009463
 **** Fit      -0.014668
 **** Fit      -0.008680
 **** Fit      -0.004146
 **** Fit      -0.000667
 **** Fit       0.002042
 **** Fit       0.004196
 **** Fit       0.005967
 **** Fit       0.007511
 **** Fit       0.008983
 **** Fit      -0.012007
 **** Fit      -0.006000
 **** Fit      -0.001566
 **** Fit       0.001793
 **** Fit       0.004427
 **** Fit       0.006609
 **** Fit       0.008580
 **** Fit       0.010589
 **** Fit      -0.015475
 **** Fit      -0.007846
 **** Fit      -0.002349
 **** Fit       0.001740
 **** Fit       0.004943
 **** Fit       0.007667
 **** Fit       0.010288
 **** Fit      -0.005890
 **** Fit      -0.000066
 **** Fit       0.004377
 **** Fit       0.008128
 **** Fit       0.011851
 **** Fit      -0.006006
 **** Fit       0.001096
 **** Fit       0.006880
 **** Fit       0.012413
 **** Fit      -0.000660
 **** Fit      -0.001336
 **** Fit      -0.003264
 **** Fit      -0.002435
 **** Fit      -0.000127
 **** Fit       0.001277
 **** Fit       0.000836
 **** Fit      -0.002132
 **** Fit      -0.004973
 **** Fit      -0.006787
 **** Fit      -0.006510
 **** Fit      -0.004509
 **** Fit      -0.001968
 **** Fit       0.000263
 **** Fit       0.001853
 **** Fit       0.002717
 **** Fit       0.002819
 **** Fit       0.002085
 **** Fit       0.000419
 **** Fit      -0.003001
 **** Fit      -0.006391
 **** Fit      -0.009641
 **** Fit      -0.011629
 **** Fit      -0.011570
 **** Fit      -0.009685
 **** Fit      -0.006889
 **** Fit      -0.004016
 **** Fit      -0.001499
 **** Fit       0.000525
 **** Fit       0.002057
 **** Fit       0.003133
 **** Fit       0.003787
 **** Fit       0.004026
 **** Fit       0.003827
 **** Fit       0.003129
 **** Fit       0.001832
 **** Fit      -0.000191
 **** Fit      -0.003861
 **** Fit      -0.007935
 **** Fit      -0.012487
 **** Fit      -0.016497
 **** Fit      -0.018654
 **** Fit      -0.018228
 **** Fit      -0.015653
 **** Fit      -0.012043
 **** Fit      -0.008360
 **** Fit      -0.005096
 **** Fit      -0.002387
 **** Fit      -0.000214
 **** Fit       0.001490
 **** Fit       0.002796
 **** Fit       0.003762
 **** Fit       0.004428
 **** Fit       0.004812
 **** Fit       0.004915
 **** Fit       0.004710
 **** Fit       0.004152
 **** Fit       0.003158
 **** Fit       0.001602
 **** Fit      -0.000683
 **** Fit      -0.004578
 **** Fit      -0.009501
 **** Fit      -0.017403
 **** Fit      -0.012451
 **** Fit      -0.008270
 **** Fit      -0.004890
 **** Fit      -0.002199
 **** Fit      -0.000070
 **** Fit       0.001604
 **** Fit       0.002910
 **** Fit       0.003918
 **** Fit       0.004674
 **** Fit       0.005210
 **** Fit       0.005537
 **** Fit       0.005648
 **** Fit       0.005526
 **** Fit       0.005133
 **** Fit       0.004414
 **** Fit       0.003272
 **** Fit       0.001556
 **** Fit      -0.000966
 **** Fit      -0.004940
 **** Fit      -0.017388
 **** Fit      -0.011997
 **** Fit      -0.007791
 **** Fit      -0.004502
 **** Fit      -0.001913
 **** Fit       0.000132
 **** Fit       0.001746
 **** Fit       0.003018
 **** Fit       0.004023
 **** Fit       0.004814
 **** Fit       0.005428
 **** Fit       0.005884
 **** Fit       0.006184
 **** Fit       0.006321
 **** Fit       0.006275
 **** Fit       0.006017
 **** Fit       0.005510
 **** Fit       0.004699
 **** Fit       0.003483
 **** Fit       0.001684
 **** Fit      -0.000986
 **** Fit       0.008723
 **** Fit       0.008807
 **** Fit       0.008747
 **** Fit       0.008520
 **** Fit       0.009215
 **** Fit       0.009475
 **** Fit       0.009632
 **** Fit       0.009659
 **** Fit       0.009543
 **** Fit       0.009277
 **** Fit       0.008864
 **** Fit       0.009377
 **** Fit       0.009790
 **** Fit       0.010149
 **** Fit       0.010418
 **** Fit       0.010571
 **** Fit       0.010589
 **** Fit       0.010463
 **** Fit       0.010188
 **** Fit       0.009772
 **** Fit       0.009232
 **** Fit       0.009902
 **** Fit       0.010367
 **** Fit       0.010796
 **** Fit       0.011152
 **** Fit       0.011407
 **** Fit       0.011542
 **** Fit       0.011542
 **** Fit       0.011398
 **** Fit       0.011103
 **** Fit       0.010655
 **** Fit       0.010064
 **** Fit       0.010306
 **** Fit       0.010803
 **** Fit       0.011297
 **** Fit       0.011742
 **** Fit       0.012108
 **** Fit       0.012371
 **** Fit       0.012512
 **** Fit       0.012515
 **** Fit       0.012363
 **** Fit       0.012039
 **** Fit       0.011517
 **** Fit       0.010765
 **** Fit       0.009740
 **** Fit       0.010918
 **** Fit       0.011445
 **** Fit       0.011989
 **** Fit       0.012496
 **** Fit       0.012930
 **** Fit       0.013262
 **** Fit       0.013470
 **** Fit       0.013531
 **** Fit       0.013417
 **** Fit       0.013085
 **** Fit       0.012468
 **** Fit       0.011445
 **** Fit       0.011493
 **** Fit       0.011993
 **** Fit       0.012571
 **** Fit       0.013148
 **** Fit       0.013673
 **** Fit       0.014110
 **** Fit       0.014429
 **** Fit       0.014599
 **** Fit       0.014580
 **** Fit       0.014304
 **** Fit       0.013647
 **** Fit       0.012360
 **** Fit       0.012769
 **** Fit       0.013311
 **** Fit       0.013910
 **** Fit       0.014497
 **** Fit       0.015027
 **** Fit       0.015462
 **** Fit       0.015768
 **** Fit       0.015897
 **** Fit       0.015768
 **** Fit       0.015216
 **** Fit       0.014103
 **** Fit       0.014571
 **** Fit       0.015167
 **** Fit       0.015803
 **** Fit       0.016414
 **** Fit       0.016954
 **** Fit       0.017375
 **** Fit       0.017604
 **** Fit       0.017497
 **** Fit       0.016504
 **** Fit       0.016966
 **** Fit       0.017589
 **** Fit       0.018285
 **** Fit       0.018994
 **** Fit       0.019670
 **** Fit       0.020246
 **** Fit       0.019763
 **** Fit       0.020059
 **** Fit       0.020766
 **** Fit       0.021772
 -----------------------------------------------------------------
 Leave Link  602 at Fri Nov 22 00:28:10 2019, MaxMem=   33554432 cpu:       5.6

 Test job not archived.
 1\1\GINC-MOSURA\FOpt\RHF\6-31G(d)\C20H36N4O4\MARIE\22-Nov-2019\0\\#HF/
 6-31G* SCF=tight Test Pop=MK iop(6/33=2) iop(6/42=6) opt\\remark line 
 goes here\\0,1\C,-6.6127778217,1.4259935135,-3.0516560801\N,-5.6419858
 444,0.6838551096,-2.27215162\C,-6.032045159,-0.3990362465,-1.569402646
 6\O,-7.131699859,-0.8731916156,-1.6780653808\C,-4.9897432618,-1.118167
 7956,-0.672743531\C,-4.6863081354,-2.4498742127,-1.3770369358\C,-3.693
 4020437,-0.3138520456,-0.4358303566\C,-2.6634818211,-0.9950689416,0.47
 20522359\C,-1.4905264462,-0.0744434539,0.8533731972\C,-0.6681277077,0.
 3966984924,-0.3212366922\C,0.5292834736,-0.0259360431,-0.6946083052\C,
 1.379001448,-1.0853825319,-0.0360525764\C,2.5572795261,-0.5248534975,0
 .7804289966\C,3.5532529404,0.2717550185,-0.0700611677\C,4.870862491,0.
 6735198376,0.6340658736\C,4.5852495713,1.4697708183,1.9140531485\N,5.6
 062750144,-0.5470399015,0.9529455714\C,6.906403714,-0.50213871,1.36343
 66965\C,7.6426334807,-1.8212660596,1.3034430096\O,7.4333189617,0.50749
 89441,1.7422672281\C,5.6799232495,1.4432162432,-0.4376939468\O,6.15070
 44243,0.8409177553,-1.366292323\N,5.7418292313,2.7869012123,-0.3420638
 576\C,6.5418825265,3.5469415239,-1.2813007438\N,-5.6492203341,-1.43830
 44679,0.590275778\C,-6.2846410142,-0.4845150101,1.3250020663\C,-7.2080
 942176,-1.0084387258,2.401089206\O,-6.1282355014,0.6906161892,1.131993
 4388\H,-6.089576137,2.1760055397,-3.6303408653\H,-7.3500997149,1.91075
 62789,-2.4213396897\H,-7.1255055695,0.7562782438,-3.7257457008\H,-4.84
 80320851,1.1845912577,-1.9510628903\H,-5.6081119561,-2.9710787707,-1.6
 030549845\H,-4.1604115362,-2.2731198298,-2.3085307914\H,-4.0686051246,
 -3.0835959952,-0.7522605772\H,-3.2366248417,-0.1269011972,-1.403170056
 6\H,-3.9549437473,0.6430537473,-0.0012528514\H,-3.1509752304,-1.321228
 0723,1.3841704064\H,-2.2621465404,-1.8813778967,-0.0097539487\H,-1.884
 1512594,0.796654479,1.3729428725\H,-0.8640840245,-0.5950787383,1.56849
 95284\H,-1.1228977756,1.1696631261,-0.9207530539\H,0.9627742623,0.4333
 054365,-1.5689346592\H,1.768224907,-1.7461290655,-0.8084502038\H,0.774
 12923,-1.7053623267,0.6153186921\H,3.0647242912,-1.3555569178,1.262658
 9867\H,2.1611921256,0.1001230649,1.5739267218\H,3.0807683449,1.1835770
 105,-0.4213077896\H,3.8161031889,-0.296670737,-0.9576255253\H,3.898794
 4835,2.2873131169,1.7155083632\H,4.1239741114,0.8208368567,2.646296042
 1\H,5.4944631845,1.8579143679,2.349485047\H,5.3777832791,-1.3309314028
 ,0.382680663\H,8.0028555524,-1.9732322259,0.2903355139\H,7.0040963402,
 -2.6560463335,1.5690168726\H,8.4918170145,-1.781958027,1.9700371019\H,
 5.5697652019,3.2006088885,0.5432356466\H,6.2585100068,3.2900822429,-2.
 2911174011\H,7.6012926984,3.3492708125,-1.1607378248\H,6.3555875244,4.
 6007041083,-1.1201712981\H,-6.0397829428,-2.3523530955,0.6445340125\H,
 -8.1700168536,-1.2369794267,1.9521835109\H,-7.3492946305,-0.2417472064
 ,3.1489568282\H,-6.8242066631,-1.9095667124,2.8655930186\\Version=EM64
 L-G09RevA.02\State=1-A\HF=-1295.6270893\RMSD=4.211e-09\RMSF=2.444e-06\
 Dipole=-0.1817176,-0.6451406,0.3817843\Quadrupole=-31.5752031,23.88378
 99,7.6914133,1.6774063,-4.1250517,-8.417749\PG=C01 [X(C20H36N4O4)]\\@


 ACHIEVEMENT--  THE MAN WHO ROWS THE BOAT GENERALLY 
                DOESN'T HAVE TIME TO ROCK IT.

                   -- FROM THE BACK OF A SUGAR PACKET
 Job cpu time:  0 days  2 hours 24 minutes 39.3 seconds.
 File lengths (MBytes):  RWF=    156 Int=      0 D2E=      0 Chk=     17 Scr=      1
 Normal termination of Gaussian 09 at Fri Nov 22 00:28:10 2019.
