 Entering Gaussian System, Link 0=g09
 Input=CHI1_170.gau
 Output=CHI1_170.log
 Initial command:
 /home/marie/Utilities//g09/l1.exe /tmp/g09/Gau-5505.inp -scrdir=/tmp/g09/
 Entering Link 1 = /home/marie/Utilities//g09/l1.exe PID=      5507.
  
 Copyright (c) 1988,1990,1992,1993,1995,1998,2003,2009, Gaussian, Inc.
                  All Rights Reserved.
  
 This is part of the Gaussian(R) 09 program.  It is based on
 the Gaussian(R) 03 system (copyright 2003, Gaussian, Inc.),
 the Gaussian(R) 98 system (copyright 1998, Gaussian, Inc.),
 the Gaussian(R) 94 system (copyright 1995, Gaussian, Inc.),
 the Gaussian 92(TM) system (copyright 1992, Gaussian, Inc.),
 the Gaussian 90(TM) system (copyright 1990, Gaussian, Inc.),
 the Gaussian 88(TM) system (copyright 1988, Gaussian, Inc.),
 the Gaussian 86(TM) system (copyright 1986, Carnegie Mellon
 University), and the Gaussian 82(TM) system (copyright 1983,
 Carnegie Mellon University). Gaussian is a federally registered
 trademark of Gaussian, Inc.
  
 This software contains proprietary and confidential information,
 including trade secrets, belonging to Gaussian, Inc.
  
 This software is provided under written license and may be
 used, copied, transmitted, or stored only in accord with that
 written license.
  
 The following legend is applicable only to US Government
 contracts under FAR:
  
                    RESTRICTED RIGHTS LEGEND
  
 Use, reproduction and disclosure by the US Government is
 subject to restrictions as set forth in subparagraphs (a)
 and (c) of the Commercial Computer Software - Restricted
 Rights clause in FAR 52.227-19.
  
 Gaussian, Inc.
 340 Quinnipiac St., Bldg. 40, Wallingford CT 06492
  
  
 ---------------------------------------------------------------
 Warning -- This program may not be used in any manner that
 competes with the business of Gaussian, Inc. or will provide
 assistance to any competitor of Gaussian, Inc.  The licensee
 of this program is prohibited from giving any competitor of
 Gaussian, Inc. access to this program.  By using this program,
 the user acknowledges that Gaussian, Inc. is engaged in the
 business of creating and licensing software in the field of
 computational chemistry and represents and warrants to the
 licensee that it is not a competitor of Gaussian, Inc. and that
 it will not use this program in any manner prohibited above.
 ---------------------------------------------------------------
  

 Cite this work as:
 Gaussian 09, Revision A.02,
 M. J. Frisch, G. W. Trucks, H. B. Schlegel, G. E. Scuseria, 
 M. A. Robb, J. R. Cheeseman, G. Scalmani, V. Barone, B. Mennucci, 
 G. A. Petersson, H. Nakatsuji, M. Caricato, X. Li, H. P. Hratchian, 
 A. F. Izmaylov, J. Bloino, G. Zheng, J. L. Sonnenberg, M. Hada, 
 M. Ehara, K. Toyota, R. Fukuda, J. Hasegawa, M. Ishida, T. Nakajima, 
 Y. Honda, O. Kitao, H. Nakai, T. Vreven, J. A. Montgomery, Jr., 
 J. E. Peralta, F. Ogliaro, M. Bearpark, J. J. Heyd, E. Brothers, 
 K. N. Kudin, V. N. Staroverov, R. Kobayashi, J. Normand, 
 K. Raghavachari, A. Rendell, J. C. Burant, S. S. Iyengar, J. Tomasi, 
 M. Cossi, N. Rega, J. M. Millam, M. Klene, J. E. Knox, J. B. Cross, 
 V. Bakken, C. Adamo, J. Jaramillo, R. Gomperts, R. E. Stratmann, 
 O. Yazyev, A. J. Austin, R. Cammi, C. Pomelli, J. W. Ochterski, 
 R. L. Martin, K. Morokuma, V. G. Zakrzewski, G. A. Voth, 
 P. Salvador, J. J. Dannenberg, S. Dapprich, A. D. Daniels, 
 O. Farkas, J. B. Foresman, J. V. Ortiz, J. Cioslowski, 
 and D. J. Fox, Gaussian, Inc., Wallingford CT, 2009.
 
 ******************************************
 Gaussian 09:  EM64L-G09RevA.02 11-Jun-2009
                 5-Dec-2019 
 ******************************************
 %chk=CHI1_170
 %NoSave
 ---------------------------------
 #SP HF/6-31G* Geom=(ModRedundant)
 ---------------------------------
 1/18=120,38=1/1;
 2/12=2,17=6,18=5,40=1/2;
 3/5=1,6=6,7=1,11=9,16=1,25=1,30=1/1,2,3;
 4//1;
 5/5=2,38=5/2;
 6/7=2,8=2,9=2,10=2,28=1/1;
 99/5=1,9=1/99;
 ------------
 paramfit run
 ------------
 Symbolic Z-matrix:
 Charge =  0 Multiplicity = 1
 C-CT--0.3208          0.        0.        0. 
 N-N--0.5622           1.44819   0.        0. 
 C-C-0.8053            2.1232    0.47592   1.07237 
 O-O--0.6151           1.59018   0.69673   2.12445 
 C-CX-0.0839           3.65051   0.59414   0.92154 
 C-CU--0.3230          4.1989    1.54925   1.98685 
 C-CU--0.0657          4.30775  -0.80912   1.02398 
 C-CU--0.0109          5.79828  -0.96335   0.67161 
 C-CU-0.0816           6.83079  -0.61353   1.76165 
 C-CM--0.2354          6.65736  -1.39147   3.04501 
 C-CM--0.2653          7.31771  -2.47214   3.42821 
 C-CU-0.1214           8.4084   -3.19647   2.6762 
 C-CU--0.0354          9.83057  -2.91047   3.19115 
 C-CU--0.0984          10.02845  -3.33658   4.65204 
 C-CU-0.1300           11.46078  -3.26976   5.24247 
 C-CU--0.3561          11.37413  -3.68464   6.72024 
 N-N--0.7186           12.30398  -4.21406   4.52215 
 C-C-0.8537            13.65192  -4.26889   4.7298 
 C-CT--0.3868          14.43158  -5.00565   3.66486 
 O-O--0.6323           14.1847  -3.77255   5.68319 
 C-C-0.7903            12.02123  -1.84776   5.01328 
 O-O--0.6136           12.52564  -1.55738   3.96201 
 N-N--0.5650           11.82701  -0.93725   5.99166 
 C-CT--0.3231          12.37076   0.39917   5.8631 
 N-N--0.7191           3.99741   1.07028  -0.42545 
 C-C-0.8539            3.58702   2.26716  -0.93409 
 C-CT--0.3903          4.32815   2.72766  -2.17214 
 O-O--0.6290           2.69713   2.90543  -0.4474 
 H-H1-0.1459          -0.40326   1.00615   0. 
 H-H1-0.1459          -0.36496  -0.516     0.87594 
 H-H1-0.1459          -0.34566  -0.52209  -0.88335 
 H-H-0.3572            1.90424   0.07091  -0.87936 
 H-HC-0.0997           3.93214   1.22176   2.98008 
 H-HC-0.0997           5.28092   1.59593   1.9075 
 H-HC-0.0997           3.79271   2.54059   1.8484 
 H-HC-0.0347           3.74983  -1.44451   0.33972 
 H-HC-0.0347           4.12692  -1.20203   2.01957 
 H-HC-0.0243           5.94505  -2.00634   0.40657 
 H-HC-0.0243           6.02984  -0.39056  -0.22039 
 H-HC-0.0171           6.79366   0.44545   1.98198 
 H-HC-0.0171           7.81371  -0.79757   1.34233 
 H-HA-0.1313           5.90788  -1.00612   3.71724 
 H-HA-0.1359           7.06035  -2.89283   4.38766 
 H-HC-0.0092           8.3715   -2.94292   1.62367 
 H-HC-0.0092           8.21805  -4.2673    2.73686 
 H-HC-0.0318           10.52848  -3.42883   2.53953 
 H-HC-0.0318           10.04592  -1.85597   3.07934 
 H-HC-0.0435           9.68934  -4.36259   4.77795 
 H-HC-0.0435           9.3957   -2.72128   5.28083 
 H-HC-0.1066           11.07097  -4.72389   6.77161 
 H-HC-0.1066           10.62705  -3.1018    7.24896 
 H-HC-0.1066           12.32697  -3.58671   7.21848 
 H-H-0.3529            12.0187  -4.41326   3.59068 
 H-HC-0.1047           15.37973  -5.31919   4.07446 
 H-HC-0.1047           14.6168  -4.32547   2.83892 
 H-HC-0.1047           13.89164  -5.86649   3.28566 
 H-H-0.3615            11.63489  -1.26318   6.90936 
 H-H1-0.1469           12.00507   1.00143   6.68436 
 H-H1-0.1469           12.04417   0.83786   4.93169 
 H-H1-0.1469           13.45589   0.39564   5.87854 
 H-H-0.3570            4.82812   0.68479  -0.81644 
 H-HC-0.1060           3.71017   3.4346   -2.70629 
 H-HC-0.1060           4.58817   1.90253  -2.82568 
 H-HC-0.1060           5.24477   3.2262   -1.87372 
 
 The following ModRedundant input section has been read:
 D    *    5    7    * F                                                       
 Stoichiometry    C20H36N4O4
 Framework group  C1[X(C20H36N4O4)]
 Deg. of freedom   186
 Full point group                 C1      NOp   1
 Largest Abelian subgroup         C1      NOp   1
 Largest concise Abelian subgroup C1      NOp   1
                         Standard orientation:                         
 ---------------------------------------------------------------------
 Center     Atomic      Atomic             Coordinates (Angstroms)
 Number     Number       Type             X           Y           Z
 ---------------------------------------------------------------------
      1          6    20001001        7.862402   -2.044280   -0.320026
      2          7    20001014        6.650474   -1.380946    0.114098
      3          6    20001002        5.807396   -0.848529   -0.801250
      4          8    20001024        5.893216   -1.087992   -1.973870
      5          6    90000001        4.634079   -0.019104   -0.249194
      6          6    90000002        4.069917    0.873878   -1.359215
      7          6    90000002        3.543477   -0.958365    0.333883
      8          6    90000002        2.388288   -0.347112    1.147236
      9          6    90000002        1.193927    0.236083    0.366194
     10          6    20001004        0.528047   -0.749685   -0.565012
     11          6    20001004       -0.567740   -1.456661   -0.340977
     12          6    90000002       -1.423984   -1.453766    0.902643
     13          6    90000002       -2.727344   -0.645104    0.772703
     14          6    90000002       -3.653127   -1.186067   -0.325111
     15          6    90000002       -5.074216   -0.577095   -0.444718
     16          6    90000002       -5.764948   -1.241609   -1.646701
     17          7    20001014       -5.814608   -0.884769    0.771295
     18          6    20001002       -7.048660   -0.352133    1.008937
     19          6    20001001       -7.518579   -0.446720    2.442475
     20          8    20001024       -7.715865    0.154130    0.150056
     21          6    20001002       -4.943165    0.958851   -0.556178
     22          8    20001024       -4.824012    1.630242    0.433249
     23          7    20001014       -4.865445    1.488348   -1.796167
     24          6    20001001       -4.792733    2.924166   -1.973202
     25          7    20001014        5.074225    0.794640    0.893400
     26          6    20001002        6.054357    1.739684    0.816565
     27          6    20001001        6.113637    2.700958    1.985564
     28          8    20001024        6.822631    1.801125   -0.101106
     29          1    20001035        8.556852   -1.352778   -0.783182
     30          1    20001035        7.619587   -2.817014   -1.034621
     31          1    20001035        8.334679   -2.499748    0.541285
     32          1    20001029        6.660561   -0.953485    1.010458
     33          1    20001034        3.762915    0.289373   -2.213051
     34          1    20001034        3.214059    1.424289   -0.980016
     35          1    20001034        4.819287    1.575836   -1.694815
     36          1    20001034        4.070193   -1.645235    0.992670
     37          1    20001034        3.140367   -1.560902   -0.474037
     38          1    20001034        2.005903   -1.140922    1.782267
     39          1    20001034        2.769587    0.416834    1.816840
     40          1    20001034        1.508880    1.102010   -0.201555
     41          1    20001034        0.480870    0.600809    1.097192
     42          1    20001033        1.011747   -0.877272   -1.519931
     43          1    20001033       -0.901598   -2.111998   -1.130175
     44          1    20001034       -0.864372   -1.062166    1.743446
     45          1    20001034       -1.669905   -2.484315    1.155794
     46          1    20001034       -3.223656   -0.660655    1.739040
     47          1    20001034       -2.486809    0.391785    0.578194
     48          1    20001034       -3.785862   -2.257352   -0.189966
     49          1    20001034       -3.167429   -1.052178   -1.284550
     50          1    20001034       -5.901388   -2.294668   -1.429831
     51          1    20001034       -5.153367   -1.170515   -2.540175
     52          1    20001034       -6.735297   -0.808728   -1.838469
     53          1    20001029       -5.258238   -1.022814    1.583765
     54          1    20001034       -8.594040   -0.358520    2.468287
     55          1    20001034       -7.087943    0.377745    3.002773
     56          1    20001034       -7.214071   -1.376092    2.911439
     57          1    20001029       -5.202874    0.952861   -2.560827
     58          1    20001035       -4.615382    3.134698   -3.019694
     59          1    20001035       -3.975497    3.322700   -1.390174
     60          1    20001035       -5.708521    3.415378   -1.660476
     61          1    20001029        4.405261    0.909156    1.622043
     62          1    20001034        7.104289    3.128798    2.035906
     63          1    20001034        5.875723    2.218032    2.926696
     64          1    20001034        5.399027    3.501755    1.824757
 ---------------------------------------------------------------------
 Rotational constants (GHZ):      0.3954722      0.0441862      0.0434382
 Standard basis: 6-31G(d) (6D, 7F)
 There are   492 symmetry adapted basis functions of A   symmetry.
 Integral buffers will be    131072 words long.
 Raffenetti 1 integral format.
 Two-electron integral symmetry is turned on.
   492 basis functions,   928 primitive gaussians,   492 cartesian basis functions
   108 alpha electrons      108 beta electrons
       nuclear repulsion energy      2639.4961653044 Hartrees.
 NAtoms=   64 NActive=   64 NUniq=   64 SFac= 7.50D-01 NAtFMM=   80 NAOKFM=F Big=T
 One-electron integrals computed using PRISM.
 NBasis=   492 RedAO= T  NBF=   492
 NBsUse=   492 1.00D-06 NBFU=   492
 Harris functional with IExCor=  205 diagonalized for initial guess.
 ExpMin= 1.61D-01 ExpMax= 5.48D+03 ExpMxC= 8.25D+02 IAcc=1 IRadAn=         1 AccDes= 0.00D+00
 HarFok:  IExCor=  205 AccDes= 0.00D+00 IRadAn=         1 IDoV= 1
 ScaDFX=  1.000000  1.000000  1.000000  1.000000
 FoFCou: FMM=F IPFlag=           0 FMFlag=      100000 FMFlg1=           1
         NFxFlg=           0 DoJE=T BraDBF=F KetDBF=T FulRan=T
         Omega=  0.000000  0.000000  1.000000  0.000000  0.000000 ICntrl=     500 IOpCl=  0
         NMat0=    1 NMatS0=    1 NMatT0=    0 NMatD0=    1 NMtDS0=    0 NMtDT0=    0
         I1Cent=           4 NGrid=           0.
 Petite list used in FoFCou.
 Initial guess orbital symmetries:
       Occupied  (A) (A) (A) (A) (A) (A) (A) (A) (A) (A) (A) (A)
                 (A) (A) (A) (A) (A) (A) (A) (A) (A) (A) (A) (A)
                 (A) (A) (A) (A) (A) (A) (A) (A) (A) (A) (A) (A)
                 (A) (A) (A) (A) (A) (A) (A) (A) (A) (A) (A) (A)
                 (A) (A) (A) (A) (A) (A) (A) (A) (A) (A) (A) (A)
                 (A) (A) (A) (A) (A) (A) (A) (A) (A) (A) (A) (A)
                 (A) (A) (A) (A) (A) (A) (A) (A) (A) (A) (A) (A)
                 (A) (A) (A) (A) (A) (A) (A) (A) (A) (A) (A) (A)
                 (A) (A) (A) (A) (A) (A) (A) (A) (A) (A) (A) (A)
       Virtual   (A) (A) (A) (A) (A) (A) (A) (A) (A) (A) (A) (A)
                 (A) (A) (A) (A) (A) (A) (A) (A) (A) (A) (A) (A)
                 (A) (A) (A) (A) (A) (A) (A) (A) (A) (A) (A) (A)
                 (A) (A) (A) (A) (A) (A) (A) (A) (A) (A) (A) (A)
                 (A) (A) (A) (A) (A) (A) (A) (A) (A) (A) (A) (A)
                 (A) (A) (A) (A) (A) (A) (A) (A) (A) (A) (A) (A)
                 (A) (A) (A) (A) (A) (A) (A) (A) (A) (A) (A) (A)
                 (A) (A) (A) (A) (A) (A) (A) (A) (A) (A) (A) (A)
                 (A) (A) (A) (A) (A) (A) (A) (A) (A) (A) (A) (A)
                 (A) (A) (A) (A) (A) (A) (A) (A) (A) (A) (A) (A)
                 (A) (A) (A) (A) (A) (A) (A) (A) (A) (A) (A) (A)
                 (A) (A) (A) (A) (A) (A) (A) (A) (A) (A) (A) (A)
                 (A) (A) (A) (A) (A) (A) (A) (A) (A) (A) (A) (A)
                 (A) (A) (A) (A) (A) (A) (A) (A) (A) (A) (A) (A)
                 (A) (A) (A) (A) (A) (A) (A) (A) (A) (A) (A) (A)
                 (A) (A) (A) (A) (A) (A) (A) (A) (A) (A) (A) (A)
                 (A) (A) (A) (A) (A) (A) (A) (A) (A) (A) (A) (A)
                 (A) (A) (A) (A) (A) (A) (A) (A) (A) (A) (A) (A)
                 (A) (A) (A) (A) (A) (A) (A) (A) (A) (A) (A) (A)
                 (A) (A) (A) (A) (A) (A) (A) (A) (A) (A) (A) (A)
                 (A) (A) (A) (A) (A) (A) (A) (A) (A) (A) (A) (A)
                 (A) (A) (A) (A) (A) (A) (A) (A) (A) (A) (A) (A)
                 (A) (A) (A) (A) (A) (A) (A) (A) (A) (A) (A) (A)
                 (A) (A) (A) (A) (A) (A) (A) (A) (A) (A) (A) (A)
                 (A) (A) (A) (A) (A) (A) (A) (A) (A) (A) (A) (A)
                 (A) (A) (A) (A) (A) (A) (A) (A) (A) (A) (A) (A)
                 (A) (A) (A) (A) (A) (A) (A) (A) (A) (A) (A) (A)
                 (A) (A) (A) (A) (A) (A) (A) (A) (A) (A) (A) (A)
                 (A) (A) (A) (A) (A) (A) (A) (A) (A) (A) (A) (A)
                 (A) (A) (A) (A) (A) (A) (A) (A) (A) (A) (A) (A)
                 (A) (A) (A) (A) (A) (A) (A) (A) (A) (A) (A) (A)
                 (A) (A) (A) (A) (A) (A) (A) (A) (A) (A) (A) (A)
 The electronic state of the initial guess is 1-A.
 Requested convergence on RMS density matrix=1.00D-08 within 128 cycles.
 Requested convergence on MAX density matrix=1.00D-06.
 Requested convergence on             energy=1.00D-06.
 No special actions if energy rises.
 Integral accuracy reduced to 1.0D-05 until final iterations.
 Initial convergence to 1.0D-05 achieved.  Increase integral accuracy.
 SCF Done:  E(RHF) =  -1295.61386254     A.U. after   14 cycles
             Convg  =    0.6727D-08             -V/T =  2.0012

 **********************************************************************

            Population analysis using the SCF density.

 **********************************************************************

 Orbital symmetries:
       Occupied  (A) (A) (A) (A) (A) (A) (A) (A) (A) (A) (A) (A)
                 (A) (A) (A) (A) (A) (A) (A) (A) (A) (A) (A) (A)
                 (A) (A) (A) (A) (A) (A) (A) (A) (A) (A) (A) (A)
                 (A) (A) (A) (A) (A) (A) (A) (A) (A) (A) (A) (A)
                 (A) (A) (A) (A) (A) (A) (A) (A) (A) (A) (A) (A)
                 (A) (A) (A) (A) (A) (A) (A) (A) (A) (A) (A) (A)
                 (A) (A) (A) (A) (A) (A) (A) (A) (A) (A) (A) (A)
                 (A) (A) (A) (A) (A) (A) (A) (A) (A) (A) (A) (A)
                 (A) (A) (A) (A) (A) (A) (A) (A) (A) (A) (A) (A)
       Virtual   (A) (A) (A) (A) (A) (A) (A) (A) (A) (A) (A) (A)
                 (A) (A) (A) (A) (A) (A) (A) (A) (A) (A) (A) (A)
                 (A) (A) (A) (A) (A) (A) (A) (A) (A) (A) (A) (A)
                 (A) (A) (A) (A) (A) (A) (A) (A) (A) (A) (A) (A)
                 (A) (A) (A) (A) (A) (A) (A) (A) (A) (A) (A) (A)
                 (A) (A) (A) (A) (A) (A) (A) (A) (A) (A) (A) (A)
                 (A) (A) (A) (A) (A) (A) (A) (A) (A) (A) (A) (A)
                 (A) (A) (A) (A) (A) (A) (A) (A) (A) (A) (A) (A)
                 (A) (A) (A) (A) (A) (A) (A) (A) (A) (A) (A) (A)
                 (A) (A) (A) (A) (A) (A) (A) (A) (A) (A) (A) (A)
                 (A) (A) (A) (A) (A) (A) (A) (A) (A) (A) (A) (A)
                 (A) (A) (A) (A) (A) (A) (A) (A) (A) (A) (A) (A)
                 (A) (A) (A) (A) (A) (A) (A) (A) (A) (A) (A) (A)
                 (A) (A) (A) (A) (A) (A) (A) (A) (A) (A) (A) (A)
                 (A) (A) (A) (A) (A) (A) (A) (A) (A) (A) (A) (A)
                 (A) (A) (A) (A) (A) (A) (A) (A) (A) (A) (A) (A)
                 (A) (A) (A) (A) (A) (A) (A) (A) (A) (A) (A) (A)
                 (A) (A) (A) (A) (A) (A) (A) (A) (A) (A) (A) (A)
                 (A) (A) (A) (A) (A) (A) (A) (A) (A) (A) (A) (A)
                 (A) (A) (A) (A) (A) (A) (A) (A) (A) (A) (A) (A)
                 (A) (A) (A) (A) (A) (A) (A) (A) (A) (A) (A) (A)
                 (A) (A) (A) (A) (A) (A) (A) (A) (A) (A) (A) (A)
                 (A) (A) (A) (A) (A) (A) (A) (A) (A) (A) (A) (A)
                 (A) (A) (A) (A) (A) (A) (A) (A) (A) (A) (A) (A)
                 (A) (A) (A) (A) (A) (A) (A) (A) (A) (A) (A) (A)
                 (A) (A) (A) (A) (A) (A) (A) (A) (A) (A) (A) (A)
                 (A) (A) (A) (A) (A) (A) (A) (A) (A) (A) (A) (A)
                 (A) (A) (A) (A) (A) (A) (A) (A) (A) (A) (A) (A)
                 (A) (A) (A) (A) (A) (A) (A) (A) (A) (A) (A) (A)
                 (A) (A) (A) (A) (A) (A) (A) (A) (A) (A) (A) (A)
                 (A) (A) (A) (A) (A) (A) (A) (A) (A) (A) (A) (A)
                 (A) (A) (A) (A) (A) (A) (A) (A) (A) (A) (A) (A)
 The electronic state is 1-A.
 Alpha  occ. eigenvalues --  -20.53386 -20.52360 -20.52009 -20.51550 -15.59143
 Alpha  occ. eigenvalues --  -15.58280 -15.57871 -15.57080 -11.35680 -11.34570
 Alpha  occ. eigenvalues --  -11.34081 -11.33569 -11.28946 -11.28874 -11.25373
 Alpha  occ. eigenvalues --  -11.24548 -11.24408 -11.24168 -11.23860 -11.23832
 Alpha  occ. eigenvalues --  -11.23424 -11.23294 -11.23192 -11.23013 -11.22989
 Alpha  occ. eigenvalues --  -11.22815 -11.22087 -11.20652  -1.40314  -1.39729
 Alpha  occ. eigenvalues --   -1.38458  -1.38303  -1.25225  -1.23903  -1.22995
 Alpha  occ. eigenvalues --   -1.21685  -1.11627  -1.09671  -1.07519  -1.04821
 Alpha  occ. eigenvalues --   -1.01599  -0.99668  -0.99124  -0.95889  -0.95222
 Alpha  occ. eigenvalues --   -0.94973  -0.92723  -0.87369  -0.85968  -0.83034
 Alpha  occ. eigenvalues --   -0.81353  -0.80392  -0.79826  -0.77243  -0.76728
 Alpha  occ. eigenvalues --   -0.72742  -0.71720  -0.70865  -0.69197  -0.68521
 Alpha  occ. eigenvalues --   -0.67444  -0.65557  -0.64891  -0.64158  -0.63105
 Alpha  occ. eigenvalues --   -0.62654  -0.62245  -0.62191  -0.61878  -0.61733
 Alpha  occ. eigenvalues --   -0.61303  -0.60283  -0.59627  -0.59404  -0.59004
 Alpha  occ. eigenvalues --   -0.58035  -0.57667  -0.56845  -0.56703  -0.56349
 Alpha  occ. eigenvalues --   -0.55777  -0.55330  -0.55095  -0.54355  -0.54238
 Alpha  occ. eigenvalues --   -0.53616  -0.53261  -0.52973  -0.52851  -0.52059
 Alpha  occ. eigenvalues --   -0.51548  -0.50400  -0.50162  -0.49639  -0.49097
 Alpha  occ. eigenvalues --   -0.48672  -0.47205  -0.46944  -0.45567  -0.42719
 Alpha  occ. eigenvalues --   -0.41891  -0.41792  -0.41385  -0.39206  -0.38919
 Alpha  occ. eigenvalues --   -0.38672  -0.37881  -0.35465
 Alpha virt. eigenvalues --    0.16294   0.19021   0.19296   0.19849   0.21199
 Alpha virt. eigenvalues --    0.21405   0.21763   0.22618   0.22897   0.23545
 Alpha virt. eigenvalues --    0.24668   0.25775   0.26045   0.26344   0.27056
 Alpha virt. eigenvalues --    0.27268   0.27883   0.28613   0.29018   0.29468
 Alpha virt. eigenvalues --    0.29605   0.30266   0.30878   0.31557   0.31791
 Alpha virt. eigenvalues --    0.32011   0.32467   0.32638   0.33029   0.33670
 Alpha virt. eigenvalues --    0.33867   0.34117   0.34285   0.34588   0.34995
 Alpha virt. eigenvalues --    0.35237   0.35738   0.35932   0.36469   0.37409
 Alpha virt. eigenvalues --    0.37674   0.38744   0.39052   0.39538   0.39943
 Alpha virt. eigenvalues --    0.41222   0.41630   0.42209   0.42842   0.43738
 Alpha virt. eigenvalues --    0.44506   0.44705   0.45427   0.46297   0.47321
 Alpha virt. eigenvalues --    0.48474   0.48793   0.49957   0.51717   0.52685
 Alpha virt. eigenvalues --    0.53414   0.55298   0.57376   0.58314   0.59229
 Alpha virt. eigenvalues --    0.61279   0.63638   0.64138   0.67669   0.69698
 Alpha virt. eigenvalues --    0.70854   0.71003   0.72123   0.72491   0.72869
 Alpha virt. eigenvalues --    0.73994   0.74407   0.75007   0.75813   0.76043
 Alpha virt. eigenvalues --    0.76260   0.76531   0.77449   0.78186   0.78315
 Alpha virt. eigenvalues --    0.78502   0.79460   0.80462   0.81607   0.82682
 Alpha virt. eigenvalues --    0.83529   0.83738   0.84225   0.85089   0.86586
 Alpha virt. eigenvalues --    0.87227   0.87716   0.88667   0.89219   0.90528
 Alpha virt. eigenvalues --    0.90939   0.91663   0.92132   0.92766   0.93946
 Alpha virt. eigenvalues --    0.94273   0.95329   0.96015   0.96517   0.97257
 Alpha virt. eigenvalues --    0.97963   0.98610   0.99306   0.99942   1.00659
 Alpha virt. eigenvalues --    1.01325   1.01744   1.02045   1.02277   1.03172
 Alpha virt. eigenvalues --    1.03639   1.04446   1.04854   1.06127   1.06711
 Alpha virt. eigenvalues --    1.07185   1.07919   1.08854   1.09663   1.09991
 Alpha virt. eigenvalues --    1.12287   1.12642   1.12901   1.13367   1.13738
 Alpha virt. eigenvalues --    1.14093   1.14493   1.14774   1.14893   1.15124
 Alpha virt. eigenvalues --    1.15440   1.15674   1.16504   1.16752   1.16958
 Alpha virt. eigenvalues --    1.17896   1.18612   1.18681   1.18773   1.19266
 Alpha virt. eigenvalues --    1.19538   1.20213   1.20450   1.21069   1.21332
 Alpha virt. eigenvalues --    1.21964   1.22039   1.22518   1.22645   1.23079
 Alpha virt. eigenvalues --    1.23283   1.23482   1.24415   1.25490   1.25610
 Alpha virt. eigenvalues --    1.26308   1.26877   1.27960   1.28602   1.29158
 Alpha virt. eigenvalues --    1.29656   1.29921   1.30277   1.31049   1.31297
 Alpha virt. eigenvalues --    1.33185   1.35184   1.35519   1.35987   1.38082
 Alpha virt. eigenvalues --    1.38590   1.39821   1.41104   1.41359   1.41634
 Alpha virt. eigenvalues --    1.43037   1.45219   1.46061   1.46674   1.48242
 Alpha virt. eigenvalues --    1.49414   1.51803   1.53103   1.53861   1.54415
 Alpha virt. eigenvalues --    1.56854   1.57585   1.59533   1.59991   1.60890
 Alpha virt. eigenvalues --    1.61600   1.62574   1.63639   1.65417   1.68189
 Alpha virt. eigenvalues --    1.69452   1.70670   1.72135   1.72962   1.73481
 Alpha virt. eigenvalues --    1.74240   1.75473   1.76982   1.78371   1.79463
 Alpha virt. eigenvalues --    1.80104   1.81102   1.82544   1.86788   1.88410
 Alpha virt. eigenvalues --    1.89217   1.89669   1.90877   1.93261   1.95364
 Alpha virt. eigenvalues --    1.95723   1.96896   1.98080   1.99372   2.00997
 Alpha virt. eigenvalues --    2.04083   2.05345   2.05768   2.06648   2.07381
 Alpha virt. eigenvalues --    2.08134   2.09565   2.11317   2.11851   2.12582
 Alpha virt. eigenvalues --    2.13057   2.13625   2.14298   2.14922   2.15909
 Alpha virt. eigenvalues --    2.16378   2.16770   2.17272   2.18695   2.19460
 Alpha virt. eigenvalues --    2.20206   2.20713   2.21746   2.23004   2.23226
 Alpha virt. eigenvalues --    2.24353   2.24923   2.25277   2.25422   2.26967
 Alpha virt. eigenvalues --    2.27253   2.28211   2.29536   2.30348   2.30743
 Alpha virt. eigenvalues --    2.32313   2.32523   2.33792   2.34627   2.34985
 Alpha virt. eigenvalues --    2.36162   2.36448   2.36918   2.38474   2.38970
 Alpha virt. eigenvalues --    2.39112   2.41050   2.41286   2.42345   2.43502
 Alpha virt. eigenvalues --    2.44130   2.45078   2.46840   2.48940   2.49850
 Alpha virt. eigenvalues --    2.51580   2.53055   2.53850   2.55038   2.55829
 Alpha virt. eigenvalues --    2.56761   2.56968   2.57917   2.59019   2.59562
 Alpha virt. eigenvalues --    2.60767   2.62819   2.64029   2.64364   2.65035
 Alpha virt. eigenvalues --    2.66237   2.68670   2.69455   2.70726   2.71562
 Alpha virt. eigenvalues --    2.71902   2.72716   2.73756   2.74604   2.75133
 Alpha virt. eigenvalues --    2.76342   2.77409   2.78545   2.79011   2.80378
 Alpha virt. eigenvalues --    2.80976   2.82176   2.83309   2.84596   2.85980
 Alpha virt. eigenvalues --    2.86564   2.87797   2.90647   2.91272   2.95323
 Alpha virt. eigenvalues --    2.95506   2.96360   2.98025   2.99007   3.02109
 Alpha virt. eigenvalues --    3.02669   3.04911   3.05011   3.05556   3.07413
 Alpha virt. eigenvalues --    3.10638   3.11063   3.12705   3.14421   3.15328
 Alpha virt. eigenvalues --    3.15750   3.17775   3.20967   3.29112   3.30222
 Alpha virt. eigenvalues --    3.34035   3.34097   3.38378   3.39836   3.40429
 Alpha virt. eigenvalues --    3.42324   3.42337   3.53431   3.55339   3.57239
 Alpha virt. eigenvalues --    3.60027   4.38070   4.41254   4.45972   4.47596
 Alpha virt. eigenvalues --    4.48813   4.51551   4.53994   4.57716   4.59470
 Alpha virt. eigenvalues --    4.62366   4.66006   4.67224   4.67988   4.69843
 Alpha virt. eigenvalues --    4.73808   4.75266   4.77745   4.82500   4.83259
 Alpha virt. eigenvalues --    4.88010   4.88874   4.93540   4.95844   4.98559
 Alpha virt. eigenvalues --    5.02429   5.04316   5.22593   5.23208
          Condensed to atoms (all electrons):
 Mulliken atomic charges:
              1
     1  C   -0.277935
     2  N   -0.781457
     3  C    0.811242
     4  O   -0.619589
     5  C    0.099635
     6  C   -0.475182
     7  C   -0.338772
     8  C   -0.323986
     9  C   -0.352076
    10  C   -0.179076
    11  C   -0.172085
    12  C   -0.356061
    13  C   -0.310652
    14  C   -0.330062
    15  C    0.090746
    16  C   -0.510083
    17  N   -0.787225
    18  C    0.767304
    19  C   -0.595810
    20  O   -0.613176
    21  C    0.820237
    22  O   -0.640721
    23  N   -0.805891
    24  C   -0.275328
    25  N   -0.854545
    26  C    0.745913
    27  C   -0.591253
    28  O   -0.592261
    29  H    0.184818
    30  H    0.198483
    31  H    0.161402
    32  H    0.389588
    33  H    0.193770
    34  H    0.144786
    35  H    0.211843
    36  H    0.183266
    37  H    0.201689
    38  H    0.181797
    39  H    0.136052
    40  H    0.181188
    41  H    0.177842
    42  H    0.185552
    43  H    0.179212
    44  H    0.173432
    45  H    0.165722
    46  H    0.152505
    47  H    0.196738
    48  H    0.175445
    49  H    0.185955
    50  H    0.184799
    51  H    0.149621
    52  H    0.227392
    53  H    0.389233
    54  H    0.212133
    55  H    0.208615
    56  H    0.176730
    57  H    0.396549
    58  H    0.166428
    59  H    0.196782
    60  H    0.185816
    61  H    0.397879
    62  H    0.218484
    63  H    0.176222
    64  H    0.200378
 Sum of Mulliken atomic charges =   0.00000
 Mulliken charges with hydrogens summed into heavy atoms:
              1
     1  C    0.266767
     2  N   -0.391869
     3  C    0.811242
     4  O   -0.619589
     5  C    0.099635
     6  C    0.075217
     7  C    0.046183
     8  C   -0.006138
     9  C    0.006954
    10  C    0.006476
    11  C    0.007127
    12  C   -0.016907
    13  C    0.038591
    14  C    0.031338
    15  C    0.090746
    16  C    0.051730
    17  N   -0.397992
    18  C    0.767304
    19  C    0.001669
    20  O   -0.613176
    21  C    0.820237
    22  O   -0.640721
    23  N   -0.409342
    24  C    0.273699
    25  N   -0.456666
    26  C    0.745913
    27  C    0.003831
    28  O   -0.592261
 Sum of Mulliken charges with hydrogens summed into heavy atoms =   0.00000
 Electronic spatial extent (au):  <R**2>=          24192.1800
 Charge=              0.0000 electrons
 Dipole moment (field-independent basis, Debye):
    X=             -0.6231    Y=             -1.5432    Z=              4.7994  Tot=              5.0797
 Quadrupole moment (field-independent basis, Debye-Ang):
   XX=           -222.2271   YY=           -169.9878   ZZ=           -161.2888
   XY=             10.3118   XZ=             35.4290   YZ=             -4.6552
 Traceless Quadrupole moment (field-independent basis, Debye-Ang):
   XX=            -37.7259   YY=             14.5134   ZZ=             23.2125
   XY=             10.3118   XZ=             35.4290   YZ=             -4.6552
 Octapole moment (field-independent basis, Debye-Ang**2):
  XXX=            124.4489  YYY=             27.0061  ZZZ=             15.0751  XYY=              2.3118
  XXY=           -118.8427  XXZ=            227.6440  XZZ=            -87.7719  YZZ=             22.9178
  YYZ=             -1.4488  XYZ=             46.5405
 Hexadecapole moment (field-independent basis, Debye-Ang**3):
 XXXX=         -31288.5045 YYYY=          -2115.5413 ZZZZ=          -1636.1199 XXXY=           -219.8487
 XXXZ=            883.6360 YYYX=            -41.5120 YYYZ=             -3.8109 ZZZX=            142.0923
 ZZZY=            -39.1999 XXYY=          -4951.4784 XXZZ=          -4552.9033 YYZZ=           -612.6453
 XXYZ=           -106.3978 YYXZ=            140.5561 ZZXY=             49.3462
 N-N= 2.639496165304D+03 E-N=-8.310434281984D+03  KE= 1.294039367001D+03
 1\1\GINC-MOSURA\SP\RHF\6-31G(d)\C20H36N4O4\MARIE\05-Dec-2019\0\\#SP HF
 /6-31G* Geom=(ModRedundant)\\paramfit run\\0,1\C,0,0.,0.,0.\N,0,1.4481
 87,0.,0.\C,0,2.1232,0.47592,1.072365\O,0,1.590179,0.696732,2.124447\C,
 0,3.650505,0.594143,0.921539\C,0,4.198902,1.549248,1.986845\C,0,4.3077
 51,-0.809116,1.023981\C,0,5.798281,-0.963347,0.671609\C,0,6.830788,-0.
 613529,1.761653\C,0,6.657362,-1.391469,3.045012\C,0,7.317713,-2.472142
 ,3.428208\C,0,8.408396,-3.196469,2.676201\C,0,9.830575,-2.910466,3.191
 151\C,0,10.028447,-3.336581,4.652036\C,0,11.46078,-3.269764,5.242465\C
 ,0,11.374128,-3.684642,6.72024\N,0,12.30398,-4.214058,4.52215\C,0,13.6
 51916,-4.268888,4.729804\C,0,14.43158,-5.005648,3.664857\O,0,14.184696
 ,-3.772554,5.683187\C,0,12.021228,-1.847759,5.01328\O,0,12.525642,-1.5
 5738,3.962007\N,0,11.827008,-0.937247,5.99166\C,0,12.370757,0.39917,5.
 863099\N,0,3.997412,1.070275,-0.425452\C,0,3.587019,2.267163,-0.934086
 \C,0,4.328148,2.727659,-2.172145\O,0,2.697134,2.905425,-0.447397\H,0,-
 0.403259,1.006147,0.\H,0,-0.36496,-0.516002,0.875939\H,0,-0.345658,-0.
 522086,-0.883346\H,0,1.904244,0.070913,-0.879357\H,0,3.932135,1.22176,
 2.980082\H,0,5.28092,1.595925,1.9075\H,0,3.792711,2.540594,1.848395\H,
 0,3.749832,-1.444511,0.339715\H,0,4.126917,-1.202026,2.019573\H,0,5.94
 5047,-2.006338,0.406568\H,0,6.029837,-0.390559,-0.220394\H,0,6.793656,
 0.445453,1.981976\H,0,7.813709,-0.797566,1.342331\H,0,5.907876,-1.0061
 19,3.71724\H,0,7.060353,-2.892831,4.38766\H,0,8.371498,-2.942916,1.623
 673\H,0,8.218047,-4.267302,2.736858\H,0,10.528475,-3.428828,2.539529\H
 ,0,10.045915,-1.855972,3.079342\H,0,9.689344,-4.362587,4.777952\H,0,9.
 395702,-2.721276,5.280832\H,0,11.070973,-4.723892,6.771608\H,0,10.6270
 48,-3.1018,7.248962\H,0,12.326966,-3.586707,7.218484\H,0,12.018701,-4.
 413263,3.590675\H,0,15.379726,-5.319191,4.074456\H,0,14.616801,-4.3254
 68,2.838919\H,0,13.891638,-5.866493,3.285657\H,0,11.634889,-1.263178,6
 .909358\H,0,12.005065,1.001433,6.68436\H,0,12.044167,0.837857,4.931692
 \H,0,13.455885,0.395643,5.878541\H,0,4.82812,0.684785,-0.816437\H,0,3.
 710173,3.434604,-2.706288\H,0,4.588171,1.902533,-2.825678\H,0,5.244771
 ,3.226201,-1.873716\\Version=EM64L-G09RevA.02\State=1-A\HF=-1295.61386
 25\RMSD=6.727e-09\Dipole=0.4930891,-1.2580376,-1.4724994\Quadrupole=-3
 5.872257,7.0796228,28.7926341,16.4669363,2.3561873,2.3193048\PG=C01 [X
 (C20H36N4O4)]\\@


 SI MONUMENTUM REQUIRIS, CIRCUMSPICE
     -- FROM SIR CHRISTOPHER WREN'S TOMBSTONE
 Job cpu time:  0 days  0 hours  4 minutes 60.0 seconds.
 File lengths (MBytes):  RWF=    132 Int=      0 D2E=      0 Chk=     10 Scr=      1
 Normal termination of Gaussian 09 at Thu Dec  5 16:56:15 2019.
