 Entering Gaussian System, Link 0=g09
 Input=CHI1_160.gau
 Output=CHI1_160.log
 Initial command:
 /home/marie/Utilities//g09/l1.exe /tmp/g09/Gau-5287.inp -scrdir=/tmp/g09/
 Entering Link 1 = /home/marie/Utilities//g09/l1.exe PID=      5289.
  
 Copyright (c) 1988,1990,1992,1993,1995,1998,2003,2009, Gaussian, Inc.
                  All Rights Reserved.
  
 This is part of the Gaussian(R) 09 program.  It is based on
 the Gaussian(R) 03 system (copyright 2003, Gaussian, Inc.),
 the Gaussian(R) 98 system (copyright 1998, Gaussian, Inc.),
 the Gaussian(R) 94 system (copyright 1995, Gaussian, Inc.),
 the Gaussian 92(TM) system (copyright 1992, Gaussian, Inc.),
 the Gaussian 90(TM) system (copyright 1990, Gaussian, Inc.),
 the Gaussian 88(TM) system (copyright 1988, Gaussian, Inc.),
 the Gaussian 86(TM) system (copyright 1986, Carnegie Mellon
 University), and the Gaussian 82(TM) system (copyright 1983,
 Carnegie Mellon University). Gaussian is a federally registered
 trademark of Gaussian, Inc.
  
 This software contains proprietary and confidential information,
 including trade secrets, belonging to Gaussian, Inc.
  
 This software is provided under written license and may be
 used, copied, transmitted, or stored only in accord with that
 written license.
  
 The following legend is applicable only to US Government
 contracts under FAR:
  
                    RESTRICTED RIGHTS LEGEND
  
 Use, reproduction and disclosure by the US Government is
 subject to restrictions as set forth in subparagraphs (a)
 and (c) of the Commercial Computer Software - Restricted
 Rights clause in FAR 52.227-19.
  
 Gaussian, Inc.
 340 Quinnipiac St., Bldg. 40, Wallingford CT 06492
  
  
 ---------------------------------------------------------------
 Warning -- This program may not be used in any manner that
 competes with the business of Gaussian, Inc. or will provide
 assistance to any competitor of Gaussian, Inc.  The licensee
 of this program is prohibited from giving any competitor of
 Gaussian, Inc. access to this program.  By using this program,
 the user acknowledges that Gaussian, Inc. is engaged in the
 business of creating and licensing software in the field of
 computational chemistry and represents and warrants to the
 licensee that it is not a competitor of Gaussian, Inc. and that
 it will not use this program in any manner prohibited above.
 ---------------------------------------------------------------
  

 Cite this work as:
 Gaussian 09, Revision A.02,
 M. J. Frisch, G. W. Trucks, H. B. Schlegel, G. E. Scuseria, 
 M. A. Robb, J. R. Cheeseman, G. Scalmani, V. Barone, B. Mennucci, 
 G. A. Petersson, H. Nakatsuji, M. Caricato, X. Li, H. P. Hratchian, 
 A. F. Izmaylov, J. Bloino, G. Zheng, J. L. Sonnenberg, M. Hada, 
 M. Ehara, K. Toyota, R. Fukuda, J. Hasegawa, M. Ishida, T. Nakajima, 
 Y. Honda, O. Kitao, H. Nakai, T. Vreven, J. A. Montgomery, Jr., 
 J. E. Peralta, F. Ogliaro, M. Bearpark, J. J. Heyd, E. Brothers, 
 K. N. Kudin, V. N. Staroverov, R. Kobayashi, J. Normand, 
 K. Raghavachari, A. Rendell, J. C. Burant, S. S. Iyengar, J. Tomasi, 
 M. Cossi, N. Rega, J. M. Millam, M. Klene, J. E. Knox, J. B. Cross, 
 V. Bakken, C. Adamo, J. Jaramillo, R. Gomperts, R. E. Stratmann, 
 O. Yazyev, A. J. Austin, R. Cammi, C. Pomelli, J. W. Ochterski, 
 R. L. Martin, K. Morokuma, V. G. Zakrzewski, G. A. Voth, 
 P. Salvador, J. J. Dannenberg, S. Dapprich, A. D. Daniels, 
 O. Farkas, J. B. Foresman, J. V. Ortiz, J. Cioslowski, 
 and D. J. Fox, Gaussian, Inc., Wallingford CT, 2009.
 
 ******************************************
 Gaussian 09:  EM64L-G09RevA.02 11-Jun-2009
                 5-Dec-2019 
 ******************************************
 %chk=CHI1_160
 %NoSave
 ---------------------------------
 #SP HF/6-31G* Geom=(ModRedundant)
 ---------------------------------
 1/18=120,38=1/1;
 2/12=2,17=6,18=5,40=1/2;
 3/5=1,6=6,7=1,11=9,16=1,25=1,30=1/1,2,3;
 4//1;
 5/5=2,38=5/2;
 6/7=2,8=2,9=2,10=2,28=1/1;
 99/5=1,9=1/99;
 ------------
 paramfit run
 ------------
 Symbolic Z-matrix:
 Charge =  0 Multiplicity = 1
 C-CT--0.3208          0.        0.        0. 
 N-N--0.5622           1.44819   0.        0. 
 C-C-0.8053            2.1232    0.47592   1.07237 
 O-O--0.6151           1.59018   0.69673   2.12445 
 C-CX-0.0839           3.65051   0.59414   0.92154 
 C-CU--0.3230          4.1989    1.54925   1.98685 
 C-CU--0.0657          4.30775  -0.80912   1.02398 
 C-CU--0.0109          5.72338  -1.01423   0.45516 
 C-CU-0.0816           6.91649  -0.60409   1.34112 
 C-CM--0.2354          6.94275  -1.28371   2.69008 
 C-CM--0.2653          7.64906  -2.34496   3.04455 
 C-CU-0.1214           8.60373  -3.14068   2.18712 
 C-CU--0.0354          10.09081  -2.84265   2.45045 
 C-CU--0.0984          10.51366  -3.16495   3.88998 
 C-CU-0.1300           12.0214  -3.0802    4.24236 
 C-CU--0.3561          12.166   -3.38515   5.74221 
 N-N--0.7186           12.73543  -4.0887    3.47125 
 C-C-0.8537            14.09891  -4.15158   3.46891 
 C-CT--0.3868          14.69714  -4.97705   2.35287 
 O-O--0.6323           14.77785  -3.59662   4.28757 
 C-C-0.7903            12.54683  -1.68847   3.82315 
 O-O--0.6136           12.88119  -1.48391   2.68724 
 N-N--0.5650           12.51411  -0.70612   4.74938 
 C-CT--0.3231          13.03839   0.60785   4.43825 
 N-N--0.7191           3.99741   1.07028  -0.42545 
 C-C-0.8539            3.58702   2.26716  -0.93409 
 C-CT--0.3903          4.32815   2.72766  -2.17214 
 O-O--0.6290           2.69713   2.90543  -0.4474 
 H-H1-0.1459          -0.40326   1.00615   0. 
 H-H1-0.1459          -0.36496  -0.516     0.87594 
 H-H1-0.1459          -0.34566  -0.52209  -0.88335 
 H-H-0.3572            1.90424   0.07091  -0.87936 
 H-HC-0.0997           3.93214   1.22176   2.98008 
 H-HC-0.0997           5.28092   1.59593   1.9075 
 H-HC-0.0997           3.79271   2.54059   1.8484 
 H-HC-0.0347           3.64554  -1.48278   0.48465 
 H-HC-0.0347           4.2836   -1.12554   2.06204 
 H-HC-0.0243           5.82073  -2.07609   0.24876 
 H-HC-0.0243           5.81494  -0.51178  -0.5022 
 H-HC-0.0171           6.92046   0.46858   1.48513 
 H-HC-0.0171           7.82014  -0.83502   0.78802 
 H-HA-0.1313           6.31055  -0.8377    3.44076 
 H-HA-0.1359           7.54349  -2.69039   4.06106 
 H-HC-0.0092           8.40313  -2.9636    1.13743 
 H-HC-0.0092           8.41926  -4.20084   2.35632 
 H-HC-0.0318           10.67456  -3.41892   1.73804 
 H-HC-0.0318           10.29183  -1.80293   2.22818 
 H-HC-0.0435           10.1928  -4.17311   4.14339 
 H-HC-0.0435           9.99121  -2.4948    4.5625 
 H-HC-0.1066           11.86884  -4.41254   5.91756 
 H-HC-0.1066           11.51471  -2.75266   6.33648 
 H-HC-0.1066           13.1859  -3.26778   6.07653 
 H-H-0.3529            12.30602  -4.35004   2.61333 
 H-HC-0.1047           15.69614  -5.27635   2.63123 
 H-HC-0.1047           14.75394  -4.36191   1.45984 
 H-HC-0.1047           14.09941  -5.85369   2.12795 
 H-H-0.3615            12.46693  -0.96121   5.70751 
 H-H1-0.1469           12.80987   1.27436   5.2595 
 H-H1-0.1469           12.57181   0.98335   3.5394 
 H-H1-0.1469           14.1124   0.58672   4.28391 
 H-H-0.3570            4.82812   0.68479  -0.81644 
 H-HC-0.1060           3.71017   3.4346   -2.70629 
 H-HC-0.1060           4.58817   1.90253  -2.82568 
 H-HC-0.1060           5.24477   3.2262   -1.87372 
 
 The following ModRedundant input section has been read:
 D    *    5    7    * F                                                       
 Stoichiometry    C20H36N4O4
 Framework group  C1[X(C20H36N4O4)]
 Deg. of freedom   186
 Full point group                 C1      NOp   1
 Largest Abelian subgroup         C1      NOp   1
 Largest concise Abelian subgroup C1      NOp   1
                         Standard orientation:                         
 ---------------------------------------------------------------------
 Center     Atomic      Atomic             Coordinates (Angstroms)
 Number     Number       Type             X           Y           Z
 ---------------------------------------------------------------------
      1          6    20001001        7.969347   -1.903465   -0.038217
      2          7    20001014        6.686582   -1.301535    0.260849
      3          6    20001002        5.912754   -0.827611   -0.743490
      4          8    20001024        6.128463   -1.077120   -1.897163
      5          6    90000001        4.647725   -0.056231   -0.326285
      6          6    90000002        4.151507    0.790367   -1.503094
      7          6    90000002        3.555251   -1.045869    0.162304
      8          6    90000002        2.410761   -0.518174    1.046223
      9          6    90000002        1.214372    0.152471    0.342287
     10          6    20001004        0.534369   -0.723941   -0.683275
     11          6    20001004       -0.564501   -1.444181   -0.526768
     12          6    90000002       -1.410903   -1.569191    0.717310
     13          6    90000002       -2.709602   -0.743389    0.685764
     14          6    90000002       -3.647717   -1.158157   -0.455647
     15          6    90000002       -5.065444   -0.531286   -0.497270
     16          6    90000002       -5.770196   -1.059170   -1.757474
     17          7    20001014       -5.798370   -0.962824    0.685153
     18          6    20001002       -7.026790   -0.451211    0.988951
     19          6    20001001       -7.486071   -0.695805    2.408121
     20          8    20001024       -7.697200    0.148081    0.194885
     21          6    20001002       -4.924621    1.006945   -0.444936
     22          8    20001024       -4.793039    1.567873    0.609567
     23          7    20001014       -4.852980    1.665607   -1.621801
     24          6    20001001       -4.771703    3.111658   -1.644872
     25          7    20001014        4.927244    0.794897    0.839426
     26          6    20001002        5.858807    1.790812    0.843367
     27          6    20001001        5.749470    2.768851    1.994716
     28          8    20001024        6.711045    1.882156    0.005819
     29          1    20001035        8.669280   -1.181214   -0.442440
     30          1    20001035        7.840726   -2.697400   -0.759221
     31          1    20001035        8.376131   -2.321434    0.874023
     32          1    20001029        6.583973   -0.862659    1.145803
     33          1    20001034        3.963150    0.179082   -2.372452
     34          1    20001034        3.233996    1.298221   -1.221142
     35          1    20001034        4.892639    1.527689   -1.775137
     36          1    20001034        4.082352   -1.802467    0.739318
     37          1    20001034        3.141632   -1.556042   -0.701943
     38          1    20001034        2.027882   -1.373048    1.595962
     39          1    20001034        2.802602    0.167411    1.790406
     40          1    20001034        1.530851    1.072255   -0.132269
     41          1    20001034        0.509631    0.441195    1.114176
     42          1    20001033        1.009650   -0.751540   -1.650467
     43          1    20001033       -0.909092   -2.009273   -1.378642
     44          1    20001034       -0.841995   -1.273207    1.590353
     45          1    20001034       -1.661970   -2.619403    0.860885
     46          1    20001034       -3.198397   -0.859248    1.649108
     47          1    20001034       -2.463416    0.306885    0.601216
     48          1    20001034       -3.786815   -2.236929   -0.434723
     49          1    20001034       -3.168661   -0.925316   -1.399384
     50          1    20001034       -5.912230   -2.128543   -1.653315
     51          1    20001034       -5.165180   -0.896584   -2.643420
     52          1    20001034       -6.738998   -0.602386   -1.893532
     53          1    20001029       -5.236601   -1.190384    1.473408
     54          1    20001034       -8.560657   -0.604361    2.452421
     55          1    20001034       -7.045334    0.061349    3.049676
     56          1    20001034       -7.184341   -1.671848    2.772372
     57          1    20001029       -5.200116    1.217072   -2.436430
     58          1    20001035       -4.601129    3.431885   -2.664324
     59          1    20001035       -3.947164    3.440561   -1.029580
     60          1    20001035       -5.681574    3.572124   -1.273578
     61          1    20001029        4.183360    0.882205    1.495598
     62          1    20001034        6.706048    3.250581    2.135668
     63          1    20001034        5.444086    2.285845    2.916126
     64          1    20001034        5.013302    3.527436    1.748937
 ---------------------------------------------------------------------
 Rotational constants (GHZ):      0.3948820      0.0445577      0.0435700
 Standard basis: 6-31G(d) (6D, 7F)
 There are   492 symmetry adapted basis functions of A   symmetry.
 Integral buffers will be    131072 words long.
 Raffenetti 1 integral format.
 Two-electron integral symmetry is turned on.
   492 basis functions,   928 primitive gaussians,   492 cartesian basis functions
   108 alpha electrons      108 beta electrons
       nuclear repulsion energy      2641.9249692370 Hartrees.
 NAtoms=   64 NActive=   64 NUniq=   64 SFac= 7.50D-01 NAtFMM=   80 NAOKFM=F Big=T
 One-electron integrals computed using PRISM.
 NBasis=   492 RedAO= T  NBF=   492
 NBsUse=   492 1.00D-06 NBFU=   492
 Harris functional with IExCor=  205 diagonalized for initial guess.
 ExpMin= 1.61D-01 ExpMax= 5.48D+03 ExpMxC= 8.25D+02 IAcc=1 IRadAn=         1 AccDes= 0.00D+00
 HarFok:  IExCor=  205 AccDes= 0.00D+00 IRadAn=         1 IDoV= 1
 ScaDFX=  1.000000  1.000000  1.000000  1.000000
 FoFCou: FMM=F IPFlag=           0 FMFlag=      100000 FMFlg1=           1
         NFxFlg=           0 DoJE=T BraDBF=F KetDBF=T FulRan=T
         Omega=  0.000000  0.000000  1.000000  0.000000  0.000000 ICntrl=     500 IOpCl=  0
         NMat0=    1 NMatS0=    1 NMatT0=    0 NMatD0=    1 NMtDS0=    0 NMtDT0=    0
         I1Cent=           4 NGrid=           0.
 Petite list used in FoFCou.
 Initial guess orbital symmetries:
       Occupied  (A) (A) (A) (A) (A) (A) (A) (A) (A) (A) (A) (A)
                 (A) (A) (A) (A) (A) (A) (A) (A) (A) (A) (A) (A)
                 (A) (A) (A) (A) (A) (A) (A) (A) (A) (A) (A) (A)
                 (A) (A) (A) (A) (A) (A) (A) (A) (A) (A) (A) (A)
                 (A) (A) (A) (A) (A) (A) (A) (A) (A) (A) (A) (A)
                 (A) (A) (A) (A) (A) (A) (A) (A) (A) (A) (A) (A)
                 (A) (A) (A) (A) (A) (A) (A) (A) (A) (A) (A) (A)
                 (A) (A) (A) (A) (A) (A) (A) (A) (A) (A) (A) (A)
                 (A) (A) (A) (A) (A) (A) (A) (A) (A) (A) (A) (A)
       Virtual   (A) (A) (A) (A) (A) (A) (A) (A) (A) (A) (A) (A)
                 (A) (A) (A) (A) (A) (A) (A) (A) (A) (A) (A) (A)
                 (A) (A) (A) (A) (A) (A) (A) (A) (A) (A) (A) (A)
                 (A) (A) (A) (A) (A) (A) (A) (A) (A) (A) (A) (A)
                 (A) (A) (A) (A) (A) (A) (A) (A) (A) (A) (A) (A)
                 (A) (A) (A) (A) (A) (A) (A) (A) (A) (A) (A) (A)
                 (A) (A) (A) (A) (A) (A) (A) (A) (A) (A) (A) (A)
                 (A) (A) (A) (A) (A) (A) (A) (A) (A) (A) (A) (A)
                 (A) (A) (A) (A) (A) (A) (A) (A) (A) (A) (A) (A)
                 (A) (A) (A) (A) (A) (A) (A) (A) (A) (A) (A) (A)
                 (A) (A) (A) (A) (A) (A) (A) (A) (A) (A) (A) (A)
                 (A) (A) (A) (A) (A) (A) (A) (A) (A) (A) (A) (A)
                 (A) (A) (A) (A) (A) (A) (A) (A) (A) (A) (A) (A)
                 (A) (A) (A) (A) (A) (A) (A) (A) (A) (A) (A) (A)
                 (A) (A) (A) (A) (A) (A) (A) (A) (A) (A) (A) (A)
                 (A) (A) (A) (A) (A) (A) (A) (A) (A) (A) (A) (A)
                 (A) (A) (A) (A) (A) (A) (A) (A) (A) (A) (A) (A)
                 (A) (A) (A) (A) (A) (A) (A) (A) (A) (A) (A) (A)
                 (A) (A) (A) (A) (A) (A) (A) (A) (A) (A) (A) (A)
                 (A) (A) (A) (A) (A) (A) (A) (A) (A) (A) (A) (A)
                 (A) (A) (A) (A) (A) (A) (A) (A) (A) (A) (A) (A)
                 (A) (A) (A) (A) (A) (A) (A) (A) (A) (A) (A) (A)
                 (A) (A) (A) (A) (A) (A) (A) (A) (A) (A) (A) (A)
                 (A) (A) (A) (A) (A) (A) (A) (A) (A) (A) (A) (A)
                 (A) (A) (A) (A) (A) (A) (A) (A) (A) (A) (A) (A)
                 (A) (A) (A) (A) (A) (A) (A) (A) (A) (A) (A) (A)
                 (A) (A) (A) (A) (A) (A) (A) (A) (A) (A) (A) (A)
                 (A) (A) (A) (A) (A) (A) (A) (A) (A) (A) (A) (A)
                 (A) (A) (A) (A) (A) (A) (A) (A) (A) (A) (A) (A)
                 (A) (A) (A) (A) (A) (A) (A) (A) (A) (A) (A) (A)
                 (A) (A) (A) (A) (A) (A) (A) (A) (A) (A) (A) (A)
                 (A) (A) (A) (A) (A) (A) (A) (A) (A) (A) (A) (A)
 The electronic state of the initial guess is 1-A.
 Requested convergence on RMS density matrix=1.00D-08 within 128 cycles.
 Requested convergence on MAX density matrix=1.00D-06.
 Requested convergence on             energy=1.00D-06.
 No special actions if energy rises.
 Integral accuracy reduced to 1.0D-05 until final iterations.
 Initial convergence to 1.0D-05 achieved.  Increase integral accuracy.
 SCF Done:  E(RHF) =  -1295.61120283     A.U. after   14 cycles
             Convg  =    0.6825D-08             -V/T =  2.0012

 **********************************************************************

            Population analysis using the SCF density.

 **********************************************************************

 Orbital symmetries:
       Occupied  (A) (A) (A) (A) (A) (A) (A) (A) (A) (A) (A) (A)
                 (A) (A) (A) (A) (A) (A) (A) (A) (A) (A) (A) (A)
                 (A) (A) (A) (A) (A) (A) (A) (A) (A) (A) (A) (A)
                 (A) (A) (A) (A) (A) (A) (A) (A) (A) (A) (A) (A)
                 (A) (A) (A) (A) (A) (A) (A) (A) (A) (A) (A) (A)
                 (A) (A) (A) (A) (A) (A) (A) (A) (A) (A) (A) (A)
                 (A) (A) (A) (A) (A) (A) (A) (A) (A) (A) (A) (A)
                 (A) (A) (A) (A) (A) (A) (A) (A) (A) (A) (A) (A)
                 (A) (A) (A) (A) (A) (A) (A) (A) (A) (A) (A) (A)
       Virtual   (A) (A) (A) (A) (A) (A) (A) (A) (A) (A) (A) (A)
                 (A) (A) (A) (A) (A) (A) (A) (A) (A) (A) (A) (A)
                 (A) (A) (A) (A) (A) (A) (A) (A) (A) (A) (A) (A)
                 (A) (A) (A) (A) (A) (A) (A) (A) (A) (A) (A) (A)
                 (A) (A) (A) (A) (A) (A) (A) (A) (A) (A) (A) (A)
                 (A) (A) (A) (A) (A) (A) (A) (A) (A) (A) (A) (A)
                 (A) (A) (A) (A) (A) (A) (A) (A) (A) (A) (A) (A)
                 (A) (A) (A) (A) (A) (A) (A) (A) (A) (A) (A) (A)
                 (A) (A) (A) (A) (A) (A) (A) (A) (A) (A) (A) (A)
                 (A) (A) (A) (A) (A) (A) (A) (A) (A) (A) (A) (A)
                 (A) (A) (A) (A) (A) (A) (A) (A) (A) (A) (A) (A)
                 (A) (A) (A) (A) (A) (A) (A) (A) (A) (A) (A) (A)
                 (A) (A) (A) (A) (A) (A) (A) (A) (A) (A) (A) (A)
                 (A) (A) (A) (A) (A) (A) (A) (A) (A) (A) (A) (A)
                 (A) (A) (A) (A) (A) (A) (A) (A) (A) (A) (A) (A)
                 (A) (A) (A) (A) (A) (A) (A) (A) (A) (A) (A) (A)
                 (A) (A) (A) (A) (A) (A) (A) (A) (A) (A) (A) (A)
                 (A) (A) (A) (A) (A) (A) (A) (A) (A) (A) (A) (A)
                 (A) (A) (A) (A) (A) (A) (A) (A) (A) (A) (A) (A)
                 (A) (A) (A) (A) (A) (A) (A) (A) (A) (A) (A) (A)
                 (A) (A) (A) (A) (A) (A) (A) (A) (A) (A) (A) (A)
                 (A) (A) (A) (A) (A) (A) (A) (A) (A) (A) (A) (A)
                 (A) (A) (A) (A) (A) (A) (A) (A) (A) (A) (A) (A)
                 (A) (A) (A) (A) (A) (A) (A) (A) (A) (A) (A) (A)
                 (A) (A) (A) (A) (A) (A) (A) (A) (A) (A) (A) (A)
                 (A) (A) (A) (A) (A) (A) (A) (A) (A) (A) (A) (A)
                 (A) (A) (A) (A) (A) (A) (A) (A) (A) (A) (A) (A)
                 (A) (A) (A) (A) (A) (A) (A) (A) (A) (A) (A) (A)
                 (A) (A) (A) (A) (A) (A) (A) (A) (A) (A) (A) (A)
                 (A) (A) (A) (A) (A) (A) (A) (A) (A) (A) (A) (A)
                 (A) (A) (A) (A) (A) (A) (A) (A) (A) (A) (A) (A)
                 (A) (A) (A) (A) (A) (A) (A) (A) (A) (A) (A) (A)
 The electronic state is 1-A.
 Alpha  occ. eigenvalues --  -20.53341 -20.52407 -20.52073 -20.51560 -15.59015
 Alpha  occ. eigenvalues --  -15.58344 -15.57923 -15.57063 -11.35622 -11.34616
 Alpha  occ. eigenvalues --  -11.34144 -11.33557 -11.29007 -11.28860 -11.25438
 Alpha  occ. eigenvalues --  -11.24543 -11.24541 -11.24144 -11.23931 -11.23808
 Alpha  occ. eigenvalues --  -11.23642 -11.23389 -11.23318 -11.23143 -11.23071
 Alpha  occ. eigenvalues --  -11.22854 -11.22143 -11.20665  -1.40273  -1.39785
 Alpha  occ. eigenvalues --   -1.38513  -1.38302  -1.25227  -1.23958  -1.23059
 Alpha  occ. eigenvalues --   -1.21681  -1.11719  -1.09704  -1.07566  -1.04934
 Alpha  occ. eigenvalues --   -1.01673  -0.99742  -0.99180  -0.95917  -0.95234
 Alpha  occ. eigenvalues --   -0.95020  -0.92740  -0.87414  -0.86039  -0.83174
 Alpha  occ. eigenvalues --   -0.81612  -0.80309  -0.79880  -0.77302  -0.76718
 Alpha  occ. eigenvalues --   -0.72849  -0.71786  -0.71002  -0.69156  -0.68591
 Alpha  occ. eigenvalues --   -0.67498  -0.65474  -0.64943  -0.64229  -0.63078
 Alpha  occ. eigenvalues --   -0.62685  -0.62286  -0.62141  -0.61939  -0.61789
 Alpha  occ. eigenvalues --   -0.61324  -0.60262  -0.59684  -0.59401  -0.59055
 Alpha  occ. eigenvalues --   -0.58140  -0.57750  -0.56948  -0.56778  -0.56408
 Alpha  occ. eigenvalues --   -0.55824  -0.55383  -0.55153  -0.54403  -0.54239
 Alpha  occ. eigenvalues --   -0.53625  -0.53281  -0.52871  -0.52843  -0.52163
 Alpha  occ. eigenvalues --   -0.51568  -0.50409  -0.50212  -0.49677  -0.49168
 Alpha  occ. eigenvalues --   -0.48910  -0.47234  -0.47023  -0.45676  -0.42673
 Alpha  occ. eigenvalues --   -0.41950  -0.41807  -0.41433  -0.39264  -0.38902
 Alpha  occ. eigenvalues --   -0.38734  -0.37858  -0.35584
 Alpha virt. eigenvalues --    0.16200   0.18996   0.19244   0.19826   0.21152
 Alpha virt. eigenvalues --    0.21367   0.21714   0.22568   0.22771   0.23489
 Alpha virt. eigenvalues --    0.24568   0.25610   0.26083   0.26363   0.26892
 Alpha virt. eigenvalues --    0.27277   0.27924   0.28578   0.29151   0.29468
 Alpha virt. eigenvalues --    0.29563   0.30148   0.30840   0.31469   0.31762
 Alpha virt. eigenvalues --    0.32121   0.32545   0.32599   0.32984   0.33617
 Alpha virt. eigenvalues --    0.34008   0.34088   0.34478   0.34674   0.34849
 Alpha virt. eigenvalues --    0.35090   0.35400   0.36035   0.36513   0.37284
 Alpha virt. eigenvalues --    0.37667   0.38675   0.39019   0.39411   0.39937
 Alpha virt. eigenvalues --    0.41356   0.41448   0.42183   0.42942   0.43898
 Alpha virt. eigenvalues --    0.44535   0.44881   0.45316   0.45501   0.46961
 Alpha virt. eigenvalues --    0.48351   0.48690   0.50268   0.51608   0.52289
 Alpha virt. eigenvalues --    0.53804   0.55563   0.57293   0.58103   0.59167
 Alpha virt. eigenvalues --    0.61063   0.63510   0.64284   0.68061   0.69644
 Alpha virt. eigenvalues --    0.70619   0.70915   0.71928   0.72439   0.72935
 Alpha virt. eigenvalues --    0.74069   0.74260   0.74822   0.75723   0.76002
 Alpha virt. eigenvalues --    0.76126   0.76511   0.77602   0.78162   0.78345
 Alpha virt. eigenvalues --    0.78425   0.79401   0.80362   0.81297   0.82778
 Alpha virt. eigenvalues --    0.83539   0.83845   0.84365   0.85027   0.86577
 Alpha virt. eigenvalues --    0.87261   0.87622   0.88769   0.89398   0.90430
 Alpha virt. eigenvalues --    0.90939   0.91612   0.92089   0.92685   0.93607
 Alpha virt. eigenvalues --    0.94412   0.95203   0.96190   0.96424   0.97181
 Alpha virt. eigenvalues --    0.97674   0.98459   0.99124   0.99841   1.00572
 Alpha virt. eigenvalues --    1.01246   1.01647   1.02144   1.02242   1.03164
 Alpha virt. eigenvalues --    1.03600   1.04263   1.04948   1.06156   1.06818
 Alpha virt. eigenvalues --    1.07127   1.07891   1.08493   1.09580   1.09907
 Alpha virt. eigenvalues --    1.11917   1.12591   1.12843   1.13414   1.13787
 Alpha virt. eigenvalues --    1.14053   1.14154   1.14556   1.14731   1.15153
 Alpha virt. eigenvalues --    1.15438   1.15762   1.16311   1.16643   1.17096
 Alpha virt. eigenvalues --    1.17835   1.18427   1.18611   1.18729   1.19187
 Alpha virt. eigenvalues --    1.19746   1.20095   1.20354   1.20929   1.21286
 Alpha virt. eigenvalues --    1.21909   1.22036   1.22532   1.22911   1.22982
 Alpha virt. eigenvalues --    1.23156   1.23560   1.24144   1.25566   1.25737
 Alpha virt. eigenvalues --    1.26108   1.26735   1.27769   1.28434   1.28898
 Alpha virt. eigenvalues --    1.29082   1.29585   1.29740   1.30865   1.31420
 Alpha virt. eigenvalues --    1.33635   1.34664   1.35439   1.36826   1.38075
 Alpha virt. eigenvalues --    1.38552   1.39835   1.41049   1.41599   1.42308
 Alpha virt. eigenvalues --    1.43581   1.44336   1.45912   1.46220   1.48096
 Alpha virt. eigenvalues --    1.49484   1.51700   1.53405   1.53894   1.55318
 Alpha virt. eigenvalues --    1.56704   1.57480   1.59473   1.59571   1.60920
 Alpha virt. eigenvalues --    1.61532   1.62947   1.63574   1.65364   1.68030
 Alpha virt. eigenvalues --    1.69325   1.70593   1.72009   1.72748   1.73409
 Alpha virt. eigenvalues --    1.74387   1.75673   1.77589   1.78466   1.79198
 Alpha virt. eigenvalues --    1.80030   1.80671   1.82443   1.86413   1.88376
 Alpha virt. eigenvalues --    1.89114   1.90051   1.90800   1.93258   1.95369
 Alpha virt. eigenvalues --    1.96110   1.97546   1.97932   1.99397   2.00038
 Alpha virt. eigenvalues --    2.04029   2.04671   2.05722   2.06616   2.07318
 Alpha virt. eigenvalues --    2.08070   2.09606   2.11218   2.11815   2.12895
 Alpha virt. eigenvalues --    2.13104   2.13263   2.14238   2.14803   2.15796
 Alpha virt. eigenvalues --    2.16122   2.16475   2.17275   2.18503   2.19424
 Alpha virt. eigenvalues --    2.20259   2.20578   2.21689   2.22416   2.23276
 Alpha virt. eigenvalues --    2.24428   2.24649   2.25085   2.26128   2.26869
 Alpha virt. eigenvalues --    2.27224   2.28030   2.29280   2.30495   2.30849
 Alpha virt. eigenvalues --    2.32357   2.32827   2.33724   2.34520   2.35022
 Alpha virt. eigenvalues --    2.36144   2.36396   2.36925   2.38419   2.38949
 Alpha virt. eigenvalues --    2.39092   2.40902   2.41397   2.42401   2.43287
 Alpha virt. eigenvalues --    2.44118   2.44631   2.46771   2.48706   2.50188
 Alpha virt. eigenvalues --    2.51609   2.52953   2.53809   2.54936   2.55643
 Alpha virt. eigenvalues --    2.56816   2.56883   2.57844   2.59244   2.59809
 Alpha virt. eigenvalues --    2.61278   2.62771   2.63985   2.64331   2.65065
 Alpha virt. eigenvalues --    2.66234   2.68545   2.69051   2.70139   2.71674
 Alpha virt. eigenvalues --    2.72210   2.72570   2.73571   2.74718   2.75171
 Alpha virt. eigenvalues --    2.76173   2.77357   2.78582   2.78939   2.80259
 Alpha virt. eigenvalues --    2.81034   2.82039   2.83300   2.84440   2.85910
 Alpha virt. eigenvalues --    2.86580   2.87797   2.90543   2.91225   2.95083
 Alpha virt. eigenvalues --    2.95425   2.96509   2.97960   2.98848   3.01657
 Alpha virt. eigenvalues --    3.02580   3.04817   3.04905   3.05417   3.07085
 Alpha virt. eigenvalues --    3.10575   3.11066   3.12636   3.14312   3.15148
 Alpha virt. eigenvalues --    3.15726   3.17719   3.20871   3.29352   3.30165
 Alpha virt. eigenvalues --    3.33979   3.34519   3.38420   3.39724   3.40355
 Alpha virt. eigenvalues --    3.42267   3.42323   3.53477   3.55280   3.57185
 Alpha virt. eigenvalues --    3.60021   4.38009   4.41435   4.47004   4.47647
 Alpha virt. eigenvalues --    4.48759   4.51500   4.53972   4.57794   4.59558
 Alpha virt. eigenvalues --    4.62366   4.66004   4.67195   4.68052   4.69778
 Alpha virt. eigenvalues --    4.73174   4.75461   4.77646   4.82808   4.83330
 Alpha virt. eigenvalues --    4.87968   4.88810   4.93478   4.95734   4.98240
 Alpha virt. eigenvalues --    5.02319   5.03271   5.23020   5.23269
          Condensed to atoms (all electrons):
 Mulliken atomic charges:
              1
     1  C   -0.277816
     2  N   -0.780850
     3  C    0.806610
     4  O   -0.618191
     5  C    0.107260
     6  C   -0.475855
     7  C   -0.340659
     8  C   -0.327786
     9  C   -0.351912
    10  C   -0.178715
    11  C   -0.171377
    12  C   -0.356403
    13  C   -0.310718
    14  C   -0.330106
    15  C    0.090766
    16  C   -0.510094
    17  N   -0.787199
    18  C    0.767279
    19  C   -0.595828
    20  O   -0.613131
    21  C    0.820196
    22  O   -0.640711
    23  N   -0.805963
    24  C   -0.275308
    25  N   -0.862458
    26  C    0.746857
    27  C   -0.592036
    28  O   -0.592417
    29  H    0.184804
    30  H    0.198459
    31  H    0.161358
    32  H    0.389492
    33  H    0.194215
    34  H    0.145622
    35  H    0.211383
    36  H    0.188399
    37  H    0.200156
    38  H    0.184329
    39  H    0.134266
    40  H    0.177532
    41  H    0.178702
    42  H    0.185186
    43  H    0.179575
    44  H    0.173480
    45  H    0.166309
    46  H    0.152859
    47  H    0.196485
    48  H    0.175663
    49  H    0.185751
    50  H    0.184940
    51  H    0.149526
    52  H    0.227521
    53  H    0.389241
    54  H    0.212250
    55  H    0.208610
    56  H    0.176819
    57  H    0.396605
    58  H    0.166420
    59  H    0.196557
    60  H    0.186006
    61  H    0.403368
    62  H    0.218560
    63  H    0.175852
    64  H    0.200266
 Sum of Mulliken atomic charges =   0.00000
 Mulliken charges with hydrogens summed into heavy atoms:
              1
     1  C    0.266805
     2  N   -0.391358
     3  C    0.806610
     4  O   -0.618191
     5  C    0.107260
     6  C    0.075365
     7  C    0.047896
     8  C   -0.009191
     9  C    0.004323
    10  C    0.006471
    11  C    0.008198
    12  C   -0.016614
    13  C    0.038627
    14  C    0.031307
    15  C    0.090766
    16  C    0.051893
    17  N   -0.397958
    18  C    0.767279
    19  C    0.001852
    20  O   -0.613131
    21  C    0.820196
    22  O   -0.640711
    23  N   -0.409358
    24  C    0.273674
    25  N   -0.459090
    26  C    0.746857
    27  C    0.002642
    28  O   -0.592417
 Sum of Mulliken charges with hydrogens summed into heavy atoms =   0.00000
 Electronic spatial extent (au):  <R**2>=          24062.5030
 Charge=              0.0000 electrons
 Dipole moment (field-independent basis, Debye):
    X=             -1.2759    Y=             -1.5511    Z=              4.3036  Tot=              4.7492
 Quadrupole moment (field-independent basis, Debye-Ang):
   XX=           -228.3367   YY=           -168.9428   ZZ=           -162.1483
   XY=              9.7016   XZ=             35.8690   YZ=             -6.2191
 Traceless Quadrupole moment (field-independent basis, Debye-Ang):
   XX=            -41.8607   YY=             17.5331   ZZ=             24.3276
   XY=              9.7016   XZ=             35.8690   YZ=             -6.2191
 Octapole moment (field-independent basis, Debye-Ang**2):
  XXX=             69.1335  YYY=             31.9621  ZZZ=             16.3221  XYY=            -12.1983
  XXY=           -122.1867  XXZ=            216.6963  XZZ=            -78.6964  YZZ=             20.1997
  YYZ=              0.0428  XYZ=             47.3493
 Hexadecapole moment (field-independent basis, Debye-Ang**3):
 XXXX=         -31441.2680 YYYY=          -2183.7600 ZZZZ=          -1565.7292 XXXY=           -187.3873
 XXXZ=            961.4151 YYYX=            -62.8729 YYYZ=             -7.8406 ZZZX=            122.7980
 ZZZY=            -36.0115 XXYY=          -4943.9884 XXZZ=          -4560.8112 YYZZ=           -614.7085
 XXYZ=           -200.5501 YYXZ=            140.0127 ZZXY=             63.5983
 N-N= 2.641924969237D+03 E-N=-8.315204878839D+03  KE= 1.294050457417D+03
 1\1\GINC-MOSURA\SP\RHF\6-31G(d)\C20H36N4O4\MARIE\05-Dec-2019\0\\#SP HF
 /6-31G* Geom=(ModRedundant)\\paramfit run\\0,1\C,0,0.,0.,0.\N,0,1.4481
 87,0.,0.\C,0,2.1232,0.47592,1.072365\O,0,1.590179,0.696732,2.124447\C,
 0,3.650505,0.594143,0.921539\C,0,4.198902,1.549248,1.986845\C,0,4.3077
 51,-0.809116,1.023981\C,0,5.723381,-1.014229,0.455164\C,0,6.916489,-0.
 604089,1.341119\C,0,6.942753,-1.283711,2.690083\C,0,7.649059,-2.344957
 ,3.044546\C,0,8.603734,-3.140683,2.187125\C,0,10.090812,-2.842652,2.45
 0454\C,0,10.51366,-3.164954,3.889979\C,0,12.021403,-3.080195,4.242363\
 C,0,12.165997,-3.385153,5.742211\N,0,12.735426,-4.088701,3.471248\C,0,
 14.098913,-4.151577,3.468905\C,0,14.697141,-4.977047,2.352872\O,0,14.7
 77853,-3.596622,4.287567\C,0,12.54683,-1.688466,3.823148\O,0,12.88119,
 -1.483914,2.687238\N,0,12.514106,-0.706121,4.749381\C,0,13.038391,0.60
 7851,4.438246\N,0,3.997412,1.070275,-0.425452\C,0,3.587019,2.267163,-0
 .934086\C,0,4.328148,2.727659,-2.172145\O,0,2.697134,2.905425,-0.44739
 7\H,0,-0.403259,1.006147,0.\H,0,-0.36496,-0.516002,0.875939\H,0,-0.345
 658,-0.522086,-0.883346\H,0,1.904244,0.070913,-0.879357\H,0,3.932135,1
 .22176,2.980082\H,0,5.28092,1.595925,1.9075\H,0,3.792711,2.540594,1.84
 8395\H,0,3.645543,-1.482777,0.484645\H,0,4.283597,-1.125542,2.062043\H
 ,0,5.820728,-2.076086,0.248762\H,0,5.814939,-0.511784,-0.502197\H,0,6.
 920463,0.468575,1.485134\H,0,7.820139,-0.835021,0.788017\H,0,6.310555,
 -0.8377,3.440758\H,0,7.543491,-2.690387,4.061057\H,0,8.403127,-2.96359
 9,1.137428\H,0,8.419258,-4.200841,2.35632\H,0,10.674558,-3.418918,1.73
 804\H,0,10.291827,-1.802931,2.228185\H,0,10.192805,-4.173106,4.143389\
 H,0,9.991212,-2.494798,4.562503\H,0,11.868838,-4.412543,5.917561\H,0,1
 1.514711,-2.752659,6.336482\H,0,13.185897,-3.267776,6.076526\H,0,12.30
 6025,-4.350039,2.613326\H,0,15.696137,-5.276353,2.631229\H,0,14.753942
 ,-4.361912,1.459839\H,0,14.099412,-5.853694,2.127948\H,0,12.46693,-0.9
 61213,5.70751\H,0,12.809874,1.274363,5.259504\H,0,12.571807,0.983346,3
 .539398\H,0,14.112396,0.58672,4.283908\H,0,4.82812,0.684785,-0.816437\
 H,0,3.710173,3.434604,-2.706288\H,0,4.588171,1.902533,-2.825678\H,0,5.
 244771,3.226201,-1.873716\\Version=EM64L-G09RevA.02\State=1-A\HF=-1295
 .6112028\RMSD=6.825e-09\Dipole=0.5406605,-1.2508138,-1.2784339\Quadrup
 ole=-37.2561417,9.5849991,27.6711426,17.5412263,9.2099353,1.4482269\PG
 =C01 [X(C20H36N4O4)]\\@


 Mondays are the potholes in the road of life.
                                -- Tom Wilson
 Job cpu time:  0 days  0 hours  4 minutes 52.2 seconds.
 File lengths (MBytes):  RWF=    132 Int=      0 D2E=      0 Chk=     10 Scr=      1
 Normal termination of Gaussian 09 at Thu Dec  5 16:51:13 2019.
