 Entering Gaussian System, Link 0=g09
 Input=CHI1_-130.gau
 Output=CHI1_-130.log
 Initial command:
 /home/marie/Utilities//g09/l1.exe /tmp/g09/Gau-3742.inp -scrdir=/tmp/g09/
 Entering Link 1 = /home/marie/Utilities//g09/l1.exe PID=      3745.
  
 Copyright (c) 1988,1990,1992,1993,1995,1998,2003,2009, Gaussian, Inc.
                  All Rights Reserved.
  
 This is part of the Gaussian(R) 09 program.  It is based on
 the Gaussian(R) 03 system (copyright 2003, Gaussian, Inc.),
 the Gaussian(R) 98 system (copyright 1998, Gaussian, Inc.),
 the Gaussian(R) 94 system (copyright 1995, Gaussian, Inc.),
 the Gaussian 92(TM) system (copyright 1992, Gaussian, Inc.),
 the Gaussian 90(TM) system (copyright 1990, Gaussian, Inc.),
 the Gaussian 88(TM) system (copyright 1988, Gaussian, Inc.),
 the Gaussian 86(TM) system (copyright 1986, Carnegie Mellon
 University), and the Gaussian 82(TM) system (copyright 1983,
 Carnegie Mellon University). Gaussian is a federally registered
 trademark of Gaussian, Inc.
  
 This software contains proprietary and confidential information,
 including trade secrets, belonging to Gaussian, Inc.
  
 This software is provided under written license and may be
 used, copied, transmitted, or stored only in accord with that
 written license.
  
 The following legend is applicable only to US Government
 contracts under FAR:
  
                    RESTRICTED RIGHTS LEGEND
  
 Use, reproduction and disclosure by the US Government is
 subject to restrictions as set forth in subparagraphs (a)
 and (c) of the Commercial Computer Software - Restricted
 Rights clause in FAR 52.227-19.
  
 Gaussian, Inc.
 340 Quinnipiac St., Bldg. 40, Wallingford CT 06492
  
  
 ---------------------------------------------------------------
 Warning -- This program may not be used in any manner that
 competes with the business of Gaussian, Inc. or will provide
 assistance to any competitor of Gaussian, Inc.  The licensee
 of this program is prohibited from giving any competitor of
 Gaussian, Inc. access to this program.  By using this program,
 the user acknowledges that Gaussian, Inc. is engaged in the
 business of creating and licensing software in the field of
 computational chemistry and represents and warrants to the
 licensee that it is not a competitor of Gaussian, Inc. and that
 it will not use this program in any manner prohibited above.
 ---------------------------------------------------------------
  

 Cite this work as:
 Gaussian 09, Revision A.02,
 M. J. Frisch, G. W. Trucks, H. B. Schlegel, G. E. Scuseria, 
 M. A. Robb, J. R. Cheeseman, G. Scalmani, V. Barone, B. Mennucci, 
 G. A. Petersson, H. Nakatsuji, M. Caricato, X. Li, H. P. Hratchian, 
 A. F. Izmaylov, J. Bloino, G. Zheng, J. L. Sonnenberg, M. Hada, 
 M. Ehara, K. Toyota, R. Fukuda, J. Hasegawa, M. Ishida, T. Nakajima, 
 Y. Honda, O. Kitao, H. Nakai, T. Vreven, J. A. Montgomery, Jr., 
 J. E. Peralta, F. Ogliaro, M. Bearpark, J. J. Heyd, E. Brothers, 
 K. N. Kudin, V. N. Staroverov, R. Kobayashi, J. Normand, 
 K. Raghavachari, A. Rendell, J. C. Burant, S. S. Iyengar, J. Tomasi, 
 M. Cossi, N. Rega, J. M. Millam, M. Klene, J. E. Knox, J. B. Cross, 
 V. Bakken, C. Adamo, J. Jaramillo, R. Gomperts, R. E. Stratmann, 
 O. Yazyev, A. J. Austin, R. Cammi, C. Pomelli, J. W. Ochterski, 
 R. L. Martin, K. Morokuma, V. G. Zakrzewski, G. A. Voth, 
 P. Salvador, J. J. Dannenberg, S. Dapprich, A. D. Daniels, 
 O. Farkas, J. B. Foresman, J. V. Ortiz, J. Cioslowski, 
 and D. J. Fox, Gaussian, Inc., Wallingford CT, 2009.
 
 ******************************************
 Gaussian 09:  EM64L-G09RevA.02 11-Jun-2009
                 5-Dec-2019 
 ******************************************
 %chk=CHI1_-130
 %NoSave
 ---------------------------------
 #SP HF/6-31G* Geom=(ModRedundant)
 ---------------------------------
 1/18=120,38=1/1;
 2/12=2,17=6,18=5,40=1/2;
 3/5=1,6=6,7=1,11=9,16=1,25=1,30=1/1,2,3;
 4//1;
 5/5=2,38=5/2;
 6/7=2,8=2,9=2,10=2,28=1/1;
 99/5=1,9=1/99;
 ------------
 paramfit run
 ------------
 Symbolic Z-matrix:
 Charge =  0 Multiplicity = 1
 C-CT--0.3208          0.        0.        0. 
 N-N--0.5622           1.44819   0.        0. 
 C-C-0.8053            2.1232    0.47592   1.07237 
 O-O--0.6151           1.59018   0.69673   2.12445 
 C-CX-0.0839           3.65051   0.59414   0.92154 
 C-CU--0.3230          4.1989    1.54925   1.98685 
 C-CU--0.0657          4.30775  -0.80912   1.02398 
 C-CU--0.0109          5.49565  -1.00941   1.98233 
 C-CU-0.0816           5.17969  -1.26214   3.46992 
 C-CM--0.2354          4.28426  -2.4541    3.71431 
 C-CM--0.2653          4.64744  -3.67605   4.06883 
 C-CU-0.1214           6.04834  -4.18214   4.31604 
 C-CU--0.0354          6.41999  -4.31716   5.80373 
 C-CU--0.0984          5.51964  -5.30971   6.55148 
 C-CU-0.1300           5.89369  -5.67509   8.01135 
 C-CU--0.3561          4.80983  -6.62597   8.54474 
 N-N--0.7186           7.17896  -6.36033   8.00328 
 C-C-0.8537            7.82767  -6.67318   9.16275 
 C-CT--0.3868          9.28881  -7.02482   9.00089 
 O-O--0.6323           7.28574  -6.67167   10.23301 
 C-C-0.7903            6.04711  -4.36785   8.82149 
 O-O--0.6136           7.08039  -3.75509   8.79311 
 N-N--0.5650           4.95451  -3.90258   9.4647 
 C-CT--0.3231          5.042    -2.71072   10.28324 
 N-N--0.7191           3.99741   1.07028  -0.42545 
 C-C-0.8539            3.58702   2.26716  -0.93409 
 C-CT--0.3903          4.32815   2.72766  -2.17214 
 O-O--0.6290           2.69713   2.90543  -0.4474 
 H-H1-0.1459          -0.40326   1.00615   0. 
 H-H1-0.1459          -0.36496  -0.516     0.87594 
 H-H1-0.1459          -0.34566  -0.52209  -0.88335 
 H-H-0.3572            1.90424   0.07091  -0.87936 
 H-HC-0.0997           3.93214   1.22176   2.98008 
 H-HC-0.0997           5.28092   1.59593   1.9075 
 H-HC-0.0997           3.79271   2.54059   1.8484 
 H-HC-0.0347           4.66255  -1.04022   0.02202 
 H-HC-0.0347           3.53351  -1.53632   1.24761 
 H-HC-0.0243           6.04491  -1.87135   1.61493 
 H-HC-0.0243           6.1755   -0.16668   1.91169 
 H-HC-0.0171           4.72547  -0.38265   3.90757 
 H-HC-0.0171           6.12718  -1.39491   3.98029 
 H-HA-0.1313           3.23002  -2.27002   3.58466 
 H-HA-0.1359           3.86276  -4.4039    4.204 
 H-HC-0.0092           6.77259  -3.52975   3.84347 
 H-HC-0.0092           6.15543  -5.15325   3.83431 
 H-HC-0.0318           7.46101  -4.62329   5.85784 
 H-HC-0.0318           6.371    -3.34396   6.27417 
 H-HC-0.0435           5.47774  -6.24603   5.99913 
 H-HC-0.0435           4.5105   -4.91522   6.57044 
 H-HC-0.1066           4.84971  -7.54959   7.97913 
 H-HC-0.1066           3.81826  -6.20597   8.41145 
 H-HC-0.1066           4.96432  -6.86226   9.58687 
 H-H-0.3529            7.77617  -6.13384   7.24121 
 H-HC-0.1047           9.61085  -7.59907   9.85622 
 H-HC-0.1047           9.8639   -6.10453   8.96268 
 H-HC-0.1047           9.47572  -7.58401   8.09053 
 H-H-0.3615            4.21685  -4.53656   9.66277 
 H-H1-0.1469           4.04561  -2.44016   10.60717 
 H-H1-0.1469           5.45638  -1.89934   9.70309 
 H-H1-0.1469           5.67076  -2.86555   11.15413 
 H-H-0.3570            4.82812   0.68479  -0.81644 
 H-HC-0.1060           3.71017   3.4346   -2.70629 
 H-HC-0.1060           4.58817   1.90253  -2.82568 
 H-HC-0.1060           5.24477   3.2262   -1.87372 
 
 The following ModRedundant input section has been read:
 D    *    5    7    * F                                                       
 Stoichiometry    C20H36N4O4
 Framework group  C1[X(C20H36N4O4)]
 Deg. of freedom   186
 Full point group                 C1      NOp   1
 Largest Abelian subgroup         C1      NOp   1
 Largest concise Abelian subgroup C1      NOp   1
                         Standard orientation:                         
 ---------------------------------------------------------------------
 Center     Atomic      Atomic             Coordinates (Angstroms)
 Number     Number       Type             X           Y           Z
 ---------------------------------------------------------------------
      1          6    20001001        6.163264    2.443488   -1.981041
      2          7    20001014        5.703633    1.178493   -1.446463
      3          6    20001002        4.960610    1.153700   -0.315352
      4          8    20001024        4.468310    2.141625    0.155168
      5          6    90000001        4.657595   -0.235907    0.273340
      6          6    90000002        4.237878   -0.091459    1.739905
      7          6    90000002        3.558536   -0.943363   -0.565217
      8          6    90000002        2.346240   -1.557102    0.158176
      9          6    90000002        1.183675   -0.615613    0.530569
     10          6    20001004        0.593402    0.127140   -0.645090
     11          6    20001004       -0.496374   -0.181692   -1.329026
     12          6    90000002       -1.419923   -1.354791   -1.103970
     13          6    90000002       -2.732540   -0.998657   -0.383019
     14          6    90000002       -3.583370    0.010418   -1.165816
     15          6    90000002       -5.009435    0.321612   -0.642230
     16          6    90000002       -5.617004    1.395766   -1.559017
     17          7    20001014       -5.808597   -0.893452   -0.722793
     18          6    20001002       -7.065946   -0.956368   -0.195372
     19          6    20001001       -7.612104   -2.354116   -0.014222
     20          8    20001024       -7.696213    0.019511    0.103905
     21          6    20001002       -4.908148    0.736840    0.843049
     22          8    20001024       -4.859533   -0.099820    1.704191
     23          7    20001014       -4.774292    2.053272    1.113365
     24          6    20001001       -4.725284    2.515119    2.485406
     25          7    20001014        5.834345   -1.109564    0.157519
     26          6    20001002        7.040218   -0.835058    0.732139
     27          6    20001001        8.001039   -2.003964    0.799959
     28          8    20001024        7.327489    0.253202    1.143607
     29          1    20001035        6.874599    2.925822   -1.320507
     30          1    20001035        5.322611    3.106677   -2.123189
     31          1    20001035        6.633147    2.263332   -2.939742
     32          1    20001029        6.259883    0.376580   -1.630329
     33          1    20001034        3.387336    0.565384    1.840245
     34          1    20001034        3.981068   -1.067809    2.139938
     35          1    20001034        5.045457    0.326543    2.323015
     36          1    20001034        4.063829   -1.753415   -1.086479
     37          1    20001034        3.214836   -0.256126   -1.331935
     38          1    20001034        1.947869   -2.320758   -0.503451
     39          1    20001034        2.672068   -2.075155    1.054185
     40          1    20001034        1.509338    0.100271    1.274087
     41          1    20001034        0.422999   -1.220876    1.011049
     42          1    20001033        1.132009    1.010975   -0.946509
     43          1    20001033       -0.770755    0.473065   -2.141287
     44          1    20001034       -0.916920   -2.124867   -0.531749
     45          1    20001034       -1.655455   -1.799987   -2.069847
     46          1    20001034       -3.281041   -1.922176   -0.219821
     47          1    20001034       -2.505776   -0.609243    0.600732
     48          1    20001034       -3.698447   -0.333282   -2.191565
     49          1    20001034       -3.048596    0.951809   -1.212153
     50          1    20001034       -5.740723    0.976050   -2.550538
     51          1    20001034       -4.958763    2.253650   -1.649209
     52          1    20001034       -6.585059    1.719384   -1.207051
     53          1    20001029       -5.294957   -1.743501   -0.674814
     54          1    20001034       -8.689106   -2.308229    0.040776
     55          1    20001034       -7.232390   -2.755403    0.920609
     56          1    20001034       -7.312485   -3.016946   -0.818751
     57          1    20001029       -5.056381    2.708616    0.423249
     58          1    20001035       -4.495269    3.572481    2.486016
     59          1    20001035       -3.951026    1.985773    3.021077
     60          1    20001035       -5.668133    2.354620    2.998271
     61          1    20001029        5.640591   -2.068534   -0.027910
     62          1    20001034        9.007876   -1.623452    0.891948
     63          1    20001034        7.930537   -2.644504   -0.071986
     64          1    20001034        7.775220   -2.600115    1.678259
 ---------------------------------------------------------------------
 Rotational constants (GHZ):      0.4108636      0.0447067      0.0438260
 Standard basis: 6-31G(d) (6D, 7F)
 There are   492 symmetry adapted basis functions of A   symmetry.
 Integral buffers will be    131072 words long.
 Raffenetti 1 integral format.
 Two-electron integral symmetry is turned on.
   492 basis functions,   928 primitive gaussians,   492 cartesian basis functions
   108 alpha electrons      108 beta electrons
       nuclear repulsion energy      2644.2403771816 Hartrees.
 NAtoms=   64 NActive=   64 NUniq=   64 SFac= 7.50D-01 NAtFMM=   80 NAOKFM=F Big=T
 One-electron integrals computed using PRISM.
 NBasis=   492 RedAO= T  NBF=   492
 NBsUse=   492 1.00D-06 NBFU=   492
 Harris functional with IExCor=  205 diagonalized for initial guess.
 ExpMin= 1.61D-01 ExpMax= 5.48D+03 ExpMxC= 8.25D+02 IAcc=1 IRadAn=         1 AccDes= 0.00D+00
 HarFok:  IExCor=  205 AccDes= 0.00D+00 IRadAn=         1 IDoV= 1
 ScaDFX=  1.000000  1.000000  1.000000  1.000000
 FoFCou: FMM=F IPFlag=           0 FMFlag=      100000 FMFlg1=           1
         NFxFlg=           0 DoJE=T BraDBF=F KetDBF=T FulRan=T
         Omega=  0.000000  0.000000  1.000000  0.000000  0.000000 ICntrl=     500 IOpCl=  0
         NMat0=    1 NMatS0=    1 NMatT0=    0 NMatD0=    1 NMtDS0=    0 NMtDT0=    0
         I1Cent=           4 NGrid=           0.
 Petite list used in FoFCou.
 Initial guess orbital symmetries:
       Occupied  (A) (A) (A) (A) (A) (A) (A) (A) (A) (A) (A) (A)
                 (A) (A) (A) (A) (A) (A) (A) (A) (A) (A) (A) (A)
                 (A) (A) (A) (A) (A) (A) (A) (A) (A) (A) (A) (A)
                 (A) (A) (A) (A) (A) (A) (A) (A) (A) (A) (A) (A)
                 (A) (A) (A) (A) (A) (A) (A) (A) (A) (A) (A) (A)
                 (A) (A) (A) (A) (A) (A) (A) (A) (A) (A) (A) (A)
                 (A) (A) (A) (A) (A) (A) (A) (A) (A) (A) (A) (A)
                 (A) (A) (A) (A) (A) (A) (A) (A) (A) (A) (A) (A)
                 (A) (A) (A) (A) (A) (A) (A) (A) (A) (A) (A) (A)
       Virtual   (A) (A) (A) (A) (A) (A) (A) (A) (A) (A) (A) (A)
                 (A) (A) (A) (A) (A) (A) (A) (A) (A) (A) (A) (A)
                 (A) (A) (A) (A) (A) (A) (A) (A) (A) (A) (A) (A)
                 (A) (A) (A) (A) (A) (A) (A) (A) (A) (A) (A) (A)
                 (A) (A) (A) (A) (A) (A) (A) (A) (A) (A) (A) (A)
                 (A) (A) (A) (A) (A) (A) (A) (A) (A) (A) (A) (A)
                 (A) (A) (A) (A) (A) (A) (A) (A) (A) (A) (A) (A)
                 (A) (A) (A) (A) (A) (A) (A) (A) (A) (A) (A) (A)
                 (A) (A) (A) (A) (A) (A) (A) (A) (A) (A) (A) (A)
                 (A) (A) (A) (A) (A) (A) (A) (A) (A) (A) (A) (A)
                 (A) (A) (A) (A) (A) (A) (A) (A) (A) (A) (A) (A)
                 (A) (A) (A) (A) (A) (A) (A) (A) (A) (A) (A) (A)
                 (A) (A) (A) (A) (A) (A) (A) (A) (A) (A) (A) (A)
                 (A) (A) (A) (A) (A) (A) (A) (A) (A) (A) (A) (A)
                 (A) (A) (A) (A) (A) (A) (A) (A) (A) (A) (A) (A)
                 (A) (A) (A) (A) (A) (A) (A) (A) (A) (A) (A) (A)
                 (A) (A) (A) (A) (A) (A) (A) (A) (A) (A) (A) (A)
                 (A) (A) (A) (A) (A) (A) (A) (A) (A) (A) (A) (A)
                 (A) (A) (A) (A) (A) (A) (A) (A) (A) (A) (A) (A)
                 (A) (A) (A) (A) (A) (A) (A) (A) (A) (A) (A) (A)
                 (A) (A) (A) (A) (A) (A) (A) (A) (A) (A) (A) (A)
                 (A) (A) (A) (A) (A) (A) (A) (A) (A) (A) (A) (A)
                 (A) (A) (A) (A) (A) (A) (A) (A) (A) (A) (A) (A)
                 (A) (A) (A) (A) (A) (A) (A) (A) (A) (A) (A) (A)
                 (A) (A) (A) (A) (A) (A) (A) (A) (A) (A) (A) (A)
                 (A) (A) (A) (A) (A) (A) (A) (A) (A) (A) (A) (A)
                 (A) (A) (A) (A) (A) (A) (A) (A) (A) (A) (A) (A)
                 (A) (A) (A) (A) (A) (A) (A) (A) (A) (A) (A) (A)
                 (A) (A) (A) (A) (A) (A) (A) (A) (A) (A) (A) (A)
                 (A) (A) (A) (A) (A) (A) (A) (A) (A) (A) (A) (A)
                 (A) (A) (A) (A) (A) (A) (A) (A) (A) (A) (A) (A)
                 (A) (A) (A) (A) (A) (A) (A) (A) (A) (A) (A) (A)
 The electronic state of the initial guess is 1-A.
 Requested convergence on RMS density matrix=1.00D-08 within 128 cycles.
 Requested convergence on MAX density matrix=1.00D-06.
 Requested convergence on             energy=1.00D-06.
 No special actions if energy rises.
 Integral accuracy reduced to 1.0D-05 until final iterations.
 Initial convergence to 1.0D-05 achieved.  Increase integral accuracy.
 SCF Done:  E(RHF) =  -1295.60945948     A.U. after   14 cycles
             Convg  =    0.6229D-08             -V/T =  2.0012

 **********************************************************************

            Population analysis using the SCF density.

 **********************************************************************

 Orbital symmetries:
       Occupied  (A) (A) (A) (A) (A) (A) (A) (A) (A) (A) (A) (A)
                 (A) (A) (A) (A) (A) (A) (A) (A) (A) (A) (A) (A)
                 (A) (A) (A) (A) (A) (A) (A) (A) (A) (A) (A) (A)
                 (A) (A) (A) (A) (A) (A) (A) (A) (A) (A) (A) (A)
                 (A) (A) (A) (A) (A) (A) (A) (A) (A) (A) (A) (A)
                 (A) (A) (A) (A) (A) (A) (A) (A) (A) (A) (A) (A)
                 (A) (A) (A) (A) (A) (A) (A) (A) (A) (A) (A) (A)
                 (A) (A) (A) (A) (A) (A) (A) (A) (A) (A) (A) (A)
                 (A) (A) (A) (A) (A) (A) (A) (A) (A) (A) (A) (A)
       Virtual   (A) (A) (A) (A) (A) (A) (A) (A) (A) (A) (A) (A)
                 (A) (A) (A) (A) (A) (A) (A) (A) (A) (A) (A) (A)
                 (A) (A) (A) (A) (A) (A) (A) (A) (A) (A) (A) (A)
                 (A) (A) (A) (A) (A) (A) (A) (A) (A) (A) (A) (A)
                 (A) (A) (A) (A) (A) (A) (A) (A) (A) (A) (A) (A)
                 (A) (A) (A) (A) (A) (A) (A) (A) (A) (A) (A) (A)
                 (A) (A) (A) (A) (A) (A) (A) (A) (A) (A) (A) (A)
                 (A) (A) (A) (A) (A) (A) (A) (A) (A) (A) (A) (A)
                 (A) (A) (A) (A) (A) (A) (A) (A) (A) (A) (A) (A)
                 (A) (A) (A) (A) (A) (A) (A) (A) (A) (A) (A) (A)
                 (A) (A) (A) (A) (A) (A) (A) (A) (A) (A) (A) (A)
                 (A) (A) (A) (A) (A) (A) (A) (A) (A) (A) (A) (A)
                 (A) (A) (A) (A) (A) (A) (A) (A) (A) (A) (A) (A)
                 (A) (A) (A) (A) (A) (A) (A) (A) (A) (A) (A) (A)
                 (A) (A) (A) (A) (A) (A) (A) (A) (A) (A) (A) (A)
                 (A) (A) (A) (A) (A) (A) (A) (A) (A) (A) (A) (A)
                 (A) (A) (A) (A) (A) (A) (A) (A) (A) (A) (A) (A)
                 (A) (A) (A) (A) (A) (A) (A) (A) (A) (A) (A) (A)
                 (A) (A) (A) (A) (A) (A) (A) (A) (A) (A) (A) (A)
                 (A) (A) (A) (A) (A) (A) (A) (A) (A) (A) (A) (A)
                 (A) (A) (A) (A) (A) (A) (A) (A) (A) (A) (A) (A)
                 (A) (A) (A) (A) (A) (A) (A) (A) (A) (A) (A) (A)
                 (A) (A) (A) (A) (A) (A) (A) (A) (A) (A) (A) (A)
                 (A) (A) (A) (A) (A) (A) (A) (A) (A) (A) (A) (A)
                 (A) (A) (A) (A) (A) (A) (A) (A) (A) (A) (A) (A)
                 (A) (A) (A) (A) (A) (A) (A) (A) (A) (A) (A) (A)
                 (A) (A) (A) (A) (A) (A) (A) (A) (A) (A) (A) (A)
                 (A) (A) (A) (A) (A) (A) (A) (A) (A) (A) (A) (A)
                 (A) (A) (A) (A) (A) (A) (A) (A) (A) (A) (A) (A)
                 (A) (A) (A) (A) (A) (A) (A) (A) (A) (A) (A) (A)
                 (A) (A) (A) (A) (A) (A) (A) (A) (A) (A) (A) (A)
                 (A) (A) (A) (A) (A) (A) (A) (A) (A) (A) (A) (A)
 The electronic state is 1-A.
 Alpha  occ. eigenvalues --  -20.53557 -20.52089 -20.51646 -20.51640 -15.59489
 Alpha  occ. eigenvalues --  -15.57910 -15.57569 -15.57205 -11.35804 -11.34300
 Alpha  occ. eigenvalues --  -11.33717 -11.33653 -11.28875 -11.28600 -11.24988
 Alpha  occ. eigenvalues --  -11.24663 -11.24280 -11.23830 -11.23454 -11.23210
 Alpha  occ. eigenvalues --  -11.22750 -11.22577 -11.22508 -11.22474 -11.22442
 Alpha  occ. eigenvalues --  -11.22255 -11.21788 -11.20682  -1.40476  -1.39410
 Alpha  occ. eigenvalues --   -1.38435  -1.38135  -1.25385  -1.23593  -1.22626
 Alpha  occ. eigenvalues --   -1.21803  -1.11076  -1.09432  -1.07241  -1.04318
 Alpha  occ. eigenvalues --   -1.01281  -0.99301  -0.98780  -0.95579  -0.95225
 Alpha  occ. eigenvalues --   -0.94675  -0.92523  -0.87437  -0.85705  -0.82476
 Alpha  occ. eigenvalues --   -0.81200  -0.79754  -0.79458  -0.76899  -0.76891
 Alpha  occ. eigenvalues --   -0.72164  -0.71360  -0.70675  -0.69178  -0.68101
 Alpha  occ. eigenvalues --   -0.67006  -0.65513  -0.64606  -0.63928  -0.63586
 Alpha  occ. eigenvalues --   -0.62575  -0.62153  -0.62071  -0.61503  -0.61350
 Alpha  occ. eigenvalues --   -0.61029  -0.59919  -0.59399  -0.58955  -0.58710
 Alpha  occ. eigenvalues --   -0.58187  -0.57599  -0.56547  -0.56236  -0.55981
 Alpha  occ. eigenvalues --   -0.55690  -0.55092  -0.54790  -0.54509  -0.54161
 Alpha  occ. eigenvalues --   -0.53233  -0.53111  -0.52429  -0.52186  -0.51418
 Alpha  occ. eigenvalues --   -0.51051  -0.50654  -0.49853  -0.48918  -0.48694
 Alpha  occ. eigenvalues --   -0.48234  -0.47227  -0.46490  -0.44763  -0.42875
 Alpha  occ. eigenvalues --   -0.42014  -0.41551  -0.41105  -0.38986  -0.38870
 Alpha  occ. eigenvalues --   -0.38313  -0.38034  -0.34753
 Alpha virt. eigenvalues --    0.16923   0.18831   0.19616   0.19891   0.21161
 Alpha virt. eigenvalues --    0.21553   0.21952   0.22994   0.23506   0.24444
 Alpha virt. eigenvalues --    0.25079   0.25520   0.26084   0.26359   0.27384
 Alpha virt. eigenvalues --    0.27609   0.28086   0.28611   0.29023   0.29246
 Alpha virt. eigenvalues --    0.29644   0.30213   0.30543   0.31122   0.31481
 Alpha virt. eigenvalues --    0.32183   0.32618   0.32849   0.33297   0.33793
 Alpha virt. eigenvalues --    0.34211   0.34465   0.34678   0.34918   0.35103
 Alpha virt. eigenvalues --    0.35457   0.36124   0.36391   0.37069   0.37561
 Alpha virt. eigenvalues --    0.37965   0.38806   0.39343   0.39585   0.39913
 Alpha virt. eigenvalues --    0.40719   0.41843   0.42244   0.42774   0.44177
 Alpha virt. eigenvalues --    0.44942   0.45452   0.45623   0.46680   0.47479
 Alpha virt. eigenvalues --    0.49057   0.49450   0.51470   0.52050   0.52411
 Alpha virt. eigenvalues --    0.53163   0.55387   0.57305   0.57813   0.59627
 Alpha virt. eigenvalues --    0.62281   0.63166   0.64477   0.69327   0.69979
 Alpha virt. eigenvalues --    0.70763   0.71432   0.72073   0.72619   0.72774
 Alpha virt. eigenvalues --    0.73905   0.74799   0.75630   0.75872   0.76257
 Alpha virt. eigenvalues --    0.76605   0.76980   0.77582   0.78486   0.78737
 Alpha virt. eigenvalues --    0.79210   0.79536   0.80624   0.82153   0.82816
 Alpha virt. eigenvalues --    0.83353   0.84011   0.84553   0.85487   0.87188
 Alpha virt. eigenvalues --    0.87363   0.87808   0.88405   0.90272   0.91140
 Alpha virt. eigenvalues --    0.91667   0.92212   0.92416   0.92832   0.93790
 Alpha virt. eigenvalues --    0.94222   0.94724   0.95997   0.96917   0.97178
 Alpha virt. eigenvalues --    0.98278   0.98357   0.99654   1.00326   1.01129
 Alpha virt. eigenvalues --    1.01369   1.02182   1.02522   1.02913   1.03795
 Alpha virt. eigenvalues --    1.03874   1.04814   1.05457   1.06657   1.07159
 Alpha virt. eigenvalues --    1.07524   1.08100   1.09081   1.10123   1.10457
 Alpha virt. eigenvalues --    1.11739   1.12464   1.12989   1.13180   1.14199
 Alpha virt. eigenvalues --    1.14400   1.14477   1.14960   1.15141   1.15720
 Alpha virt. eigenvalues --    1.15824   1.16353   1.16731   1.17351   1.17525
 Alpha virt. eigenvalues --    1.17987   1.18167   1.18575   1.18712   1.19428
 Alpha virt. eigenvalues --    1.19788   1.19878   1.20217   1.20952   1.21399
 Alpha virt. eigenvalues --    1.21686   1.22230   1.22508   1.22803   1.22943
 Alpha virt. eigenvalues --    1.23390   1.23542   1.23991   1.24876   1.25762
 Alpha virt. eigenvalues --    1.26156   1.26549   1.27080   1.28052   1.28541
 Alpha virt. eigenvalues --    1.29092   1.29746   1.30351   1.31181   1.31456
 Alpha virt. eigenvalues --    1.31954   1.33347   1.35712   1.37254   1.38241
 Alpha virt. eigenvalues --    1.38579   1.39125   1.39867   1.41235   1.42011
 Alpha virt. eigenvalues --    1.42877   1.44081   1.46038   1.47220   1.48345
 Alpha virt. eigenvalues --    1.49905   1.51164   1.51873   1.53954   1.54504
 Alpha virt. eigenvalues --    1.56823   1.57231   1.58178   1.60066   1.61157
 Alpha virt. eigenvalues --    1.61699   1.62607   1.64564   1.67519   1.68555
 Alpha virt. eigenvalues --    1.69866   1.70997   1.71243   1.72630   1.73545
 Alpha virt. eigenvalues --    1.74270   1.75383   1.75973   1.78555   1.79592
 Alpha virt. eigenvalues --    1.80522   1.81848   1.82837   1.85987   1.88605
 Alpha virt. eigenvalues --    1.89373   1.90604   1.91656   1.92413   1.94272
 Alpha virt. eigenvalues --    1.95987   1.96755   1.98521   2.00891   2.02949
 Alpha virt. eigenvalues --    2.04016   2.04581   2.06531   2.07130   2.07706
 Alpha virt. eigenvalues --    2.08997   2.10567   2.11071   2.11865   2.12204
 Alpha virt. eigenvalues --    2.13183   2.13643   2.14466   2.14995   2.16227
 Alpha virt. eigenvalues --    2.16512   2.17416   2.18143   2.19509   2.19776
 Alpha virt. eigenvalues --    2.20223   2.20976   2.22156   2.22960   2.23745
 Alpha virt. eigenvalues --    2.24918   2.25437   2.25924   2.26226   2.27455
 Alpha virt. eigenvalues --    2.28049   2.29379   2.30391   2.30830   2.32740
 Alpha virt. eigenvalues --    2.33161   2.34021   2.34099   2.34999   2.35494
 Alpha virt. eigenvalues --    2.36830   2.37082   2.37623   2.38967   2.39096
 Alpha virt. eigenvalues --    2.39845   2.41055   2.41374   2.42019   2.43658
 Alpha virt. eigenvalues --    2.44101   2.46868   2.48231   2.49787   2.51088
 Alpha virt. eigenvalues --    2.51834   2.53119   2.54166   2.55783   2.56386
 Alpha virt. eigenvalues --    2.57102   2.57265   2.58956   2.59849   2.61278
 Alpha virt. eigenvalues --    2.62179   2.63256   2.64498   2.64619   2.65167
 Alpha virt. eigenvalues --    2.66793   2.69013   2.69843   2.70412   2.71991
 Alpha virt. eigenvalues --    2.72787   2.73463   2.74239   2.74628   2.75937
 Alpha virt. eigenvalues --    2.76569   2.77787   2.78179   2.79353   2.80146
 Alpha virt. eigenvalues --    2.80763   2.82456   2.83891   2.85400   2.86270
 Alpha virt. eigenvalues --    2.87058   2.87977   2.90559   2.91765   2.95624
 Alpha virt. eigenvalues --    2.95841   2.97260   2.98372   2.98559   3.01267
 Alpha virt. eigenvalues --    3.03152   3.05203   3.05277   3.05898   3.07984
 Alpha virt. eigenvalues --    3.10570   3.11001   3.12636   3.13168   3.14932
 Alpha virt. eigenvalues --    3.15722   3.18199   3.21518   3.28665   3.30552
 Alpha virt. eigenvalues --    3.34362   3.34775   3.38434   3.40346   3.40893
 Alpha virt. eigenvalues --    3.42178   3.42662   3.53282   3.55683   3.57553
 Alpha virt. eigenvalues --    3.60058   4.38421   4.40534   4.44331   4.47374
 Alpha virt. eigenvalues --    4.49131   4.51847   4.54304   4.57814   4.58954
 Alpha virt. eigenvalues --    4.62559   4.66164   4.67424   4.67983   4.70178
 Alpha virt. eigenvalues --    4.74338   4.76793   4.78859   4.81819   4.83672
 Alpha virt. eigenvalues --    4.87430   4.89220   4.93882   4.96609   4.98864
 Alpha virt. eigenvalues --    5.02333   5.03858   5.23525   5.25915
          Condensed to atoms (all electrons):
 Mulliken atomic charges:
              1
     1  C   -0.278436
     2  N   -0.779051
     3  C    0.794365
     4  O   -0.620219
     5  C    0.143684
     6  C   -0.484405
     7  C   -0.360794
     8  C   -0.317851
     9  C   -0.353316
    10  C   -0.179873
    11  C   -0.175963
    12  C   -0.354540
    13  C   -0.310245
    14  C   -0.329770
    15  C    0.090763
    16  C   -0.509978
    17  N   -0.787438
    18  C    0.767384
    19  C   -0.595700
    20  O   -0.613510
    21  C    0.820498
    22  O   -0.640604
    23  N   -0.805438
    24  C   -0.275419
    25  N   -0.852349
    26  C    0.743405
    27  C   -0.588961
    28  O   -0.591164
    29  H    0.185425
    30  H    0.197360
    31  H    0.161939
    32  H    0.390124
    33  H    0.200775
    34  H    0.147417
    35  H    0.213610
    36  H    0.160613
    37  H    0.207197
    38  H    0.169589
    39  H    0.164108
    40  H    0.186757
    41  H    0.175248
    42  H    0.191572
    43  H    0.175421
    44  H    0.173974
    45  H    0.162162
    46  H    0.150824
    47  H    0.198121
    48  H    0.173871
    49  H    0.186979
    50  H    0.183788
    51  H    0.149867
    52  H    0.226694
    53  H    0.389318
    54  H    0.211419
    55  H    0.208856
    56  H    0.176249
    57  H    0.396070
    58  H    0.166448
    59  H    0.198234
    60  H    0.184701
    61  H    0.384142
    62  H    0.218558
    63  H    0.176690
    64  H    0.200809
 Sum of Mulliken atomic charges =   0.00000
 Mulliken charges with hydrogens summed into heavy atoms:
              1
     1  C    0.266288
     2  N   -0.388928
     3  C    0.794365
     4  O   -0.620219
     5  C    0.143684
     6  C    0.077396
     7  C    0.007017
     8  C    0.015845
     9  C    0.008689
    10  C    0.011699
    11  C   -0.000542
    12  C   -0.018403
    13  C    0.038700
    14  C    0.031081
    15  C    0.090763
    16  C    0.050370
    17  N   -0.398120
    18  C    0.767384
    19  C    0.000824
    20  O   -0.613510
    21  C    0.820498
    22  O   -0.640604
    23  N   -0.409369
    24  C    0.273963
    25  N   -0.468207
    26  C    0.743405
    27  C    0.007096
    28  O   -0.591164
 Sum of Mulliken charges with hydrogens summed into heavy atoms =   0.00000
 Electronic spatial extent (au):  <R**2>=          23948.3342
 Charge=              0.0000 electrons
 Dipole moment (field-independent basis, Debye):
    X=              2.7437    Y=             -5.2569    Z=             -4.2992  Tot=              7.3243
 Quadrupole moment (field-independent basis, Debye-Ang):
   XX=           -193.3012   YY=           -157.0614   ZZ=           -172.3107
   XY=            -28.2504   XZ=             -4.3525   YZ=             -2.4422
 Traceless Quadrupole moment (field-independent basis, Debye-Ang):
   XX=            -19.0767   YY=             17.1631   ZZ=              1.9137
   XY=            -28.2504   XZ=             -4.3525   YZ=             -2.4422
 Octapole moment (field-independent basis, Debye-Ang**2):
  XXX=            344.0654  YYY=             -0.8875  ZZZ=              6.9206  XYY=            -59.8546
  XXY=           -228.1060  XXZ=           -171.1722  XZZ=             16.5853  YZZ=             17.8572
  YYZ=              3.9651  XYZ=            -58.3069
 Hexadecapole moment (field-independent basis, Debye-Ang**3):
 XXXX=         -29725.7879 YYYY=          -2096.6620 ZZZZ=          -1555.4929 XXXY=           -592.9576
 XXXZ=           -511.0565 YYYX=           -132.0626 YYYZ=              0.7725 ZZZX=            -58.9253
 ZZZY=             16.2865 XXYY=          -4296.6927 XXZZ=          -4869.3224 YYZZ=           -582.7333
 XXYZ=           -172.0801 YYXZ=            -90.5186 ZZXY=            -37.5420
 N-N= 2.644240377182D+03 E-N=-8.320474352300D+03  KE= 1.294062808294D+03
 1\1\GINC-MOSURA\SP\RHF\6-31G(d)\C20H36N4O4\MARIE\05-Dec-2019\0\\#SP HF
 /6-31G* Geom=(ModRedundant)\\paramfit run\\0,1\C,0,0.,0.,0.\N,0,1.4481
 87,0.,0.\C,0,2.1232,0.47592,1.072365\O,0,1.590179,0.696732,2.124447\C,
 0,3.650505,0.594143,0.921539\C,0,4.198902,1.549248,1.986845\C,0,4.3077
 51,-0.809116,1.023981\C,0,5.495646,-1.009405,1.982325\C,0,5.179695,-1.
 262144,3.469918\C,0,4.284263,-2.454098,3.714308\C,0,4.64744,-3.676051,
 4.068834\C,0,6.04834,-4.182137,4.316041\C,0,6.419988,-4.317158,5.80372
 8\C,0,5.519639,-5.309709,6.551478\C,0,5.893694,-5.675086,8.011351\C,0,
 4.80983,-6.625972,8.544739\N,0,7.178957,-6.360334,8.003283\C,0,7.82766
 5,-6.673176,9.16275\C,0,9.288812,-7.024822,9.000888\O,0,7.285743,-6.67
 1669,10.233012\C,0,6.047114,-4.367848,8.821485\O,0,7.080387,-3.755092,
 8.79311\N,0,4.954507,-3.902582,9.464695\C,0,5.041998,-2.710721,10.2832
 39\N,0,3.997412,1.070275,-0.425452\C,0,3.587019,2.267163,-0.934086\C,0
 ,4.328148,2.727659,-2.172145\O,0,2.697134,2.905425,-0.447397\H,0,-0.40
 3259,1.006147,0.\H,0,-0.36496,-0.516002,0.875939\H,0,-0.345658,-0.5220
 86,-0.883346\H,0,1.904244,0.070913,-0.879357\H,0,3.932135,1.22176,2.98
 0082\H,0,5.28092,1.595925,1.9075\H,0,3.792711,2.540594,1.848395\H,0,4.
 662545,-1.040216,0.022016\H,0,3.533509,-1.536317,1.247607\H,0,6.044907
 ,-1.871352,1.61493\H,0,6.175503,-0.166684,1.911688\H,0,4.725468,-0.382
 651,3.907566\H,0,6.127182,-1.394906,3.980286\H,0,3.230022,-2.270025,3.
 584664\H,0,3.862757,-4.403899,4.204003\H,0,6.772586,-3.529747,3.843472
 \H,0,6.155434,-5.153251,3.834314\H,0,7.461011,-4.62329,5.857842\H,0,6.
 371,-3.343961,6.274173\H,0,5.477744,-6.246027,5.999131\H,0,4.510498,-4
 .915217,6.570441\H,0,4.849714,-7.549594,7.97913\H,0,3.818259,-6.205972
 ,8.411447\H,0,4.964317,-6.862255,9.586873\H,0,7.776167,-6.133841,7.241
 211\H,0,9.610854,-7.599074,9.856216\H,0,9.863902,-6.104531,8.962684\H,
 0,9.475721,-7.584007,8.090526\H,0,4.216846,-4.536563,9.66277\H,0,4.045
 612,-2.440163,10.607175\H,0,5.456382,-1.89934,9.703089\H,0,5.670756,-2
 .865548,11.154127\H,0,4.82812,0.684785,-0.816437\H,0,3.710173,3.434604
 ,-2.706288\H,0,4.588171,1.902533,-2.825678\H,0,5.244771,3.226201,-1.87
 3716\\Version=EM64L-G09RevA.02\State=1-A\HF=-1295.6094595\RMSD=6.229e-
 09\Dipole=0.8396364,-1.0022213,-2.5679289\Quadrupole=-1.2152393,-10.17
 87565,11.3939957,14.4130646,-17.2057071,4.0856696\PG=C01 [X(C20H36N4O4
 )]\\@


 A MAN IS EXACTLY AS GREAT AS THE TIDE SURGING
 BENEATH HIM.      - BISMARCK
 Job cpu time:  0 days  0 hours  4 minutes 53.6 seconds.
 File lengths (MBytes):  RWF=    132 Int=      0 D2E=      0 Chk=     10 Scr=      1
 Normal termination of Gaussian 09 at Thu Dec  5 16:24:33 2019.
