 Entering Gaussian System, Link 0=g09
 Input=CHI1_-180.gau
 Output=CHI1_-180.log
 Initial command:
 /home/marie/Utilities//g09/l1.exe /tmp/g09/Gau-2146.inp -scrdir=/tmp/g09/
 Entering Link 1 = /home/marie/Utilities//g09/l1.exe PID=      2150.
  
 Copyright (c) 1988,1990,1992,1993,1995,1998,2003,2009, Gaussian, Inc.
                  All Rights Reserved.
  
 This is part of the Gaussian(R) 09 program.  It is based on
 the Gaussian(R) 03 system (copyright 2003, Gaussian, Inc.),
 the Gaussian(R) 98 system (copyright 1998, Gaussian, Inc.),
 the Gaussian(R) 94 system (copyright 1995, Gaussian, Inc.),
 the Gaussian 92(TM) system (copyright 1992, Gaussian, Inc.),
 the Gaussian 90(TM) system (copyright 1990, Gaussian, Inc.),
 the Gaussian 88(TM) system (copyright 1988, Gaussian, Inc.),
 the Gaussian 86(TM) system (copyright 1986, Carnegie Mellon
 University), and the Gaussian 82(TM) system (copyright 1983,
 Carnegie Mellon University). Gaussian is a federally registered
 trademark of Gaussian, Inc.
  
 This software contains proprietary and confidential information,
 including trade secrets, belonging to Gaussian, Inc.
  
 This software is provided under written license and may be
 used, copied, transmitted, or stored only in accord with that
 written license.
  
 The following legend is applicable only to US Government
 contracts under FAR:
  
                    RESTRICTED RIGHTS LEGEND
  
 Use, reproduction and disclosure by the US Government is
 subject to restrictions as set forth in subparagraphs (a)
 and (c) of the Commercial Computer Software - Restricted
 Rights clause in FAR 52.227-19.
  
 Gaussian, Inc.
 340 Quinnipiac St., Bldg. 40, Wallingford CT 06492
  
  
 ---------------------------------------------------------------
 Warning -- This program may not be used in any manner that
 competes with the business of Gaussian, Inc. or will provide
 assistance to any competitor of Gaussian, Inc.  The licensee
 of this program is prohibited from giving any competitor of
 Gaussian, Inc. access to this program.  By using this program,
 the user acknowledges that Gaussian, Inc. is engaged in the
 business of creating and licensing software in the field of
 computational chemistry and represents and warrants to the
 licensee that it is not a competitor of Gaussian, Inc. and that
 it will not use this program in any manner prohibited above.
 ---------------------------------------------------------------
  

 Cite this work as:
 Gaussian 09, Revision A.02,
 M. J. Frisch, G. W. Trucks, H. B. Schlegel, G. E. Scuseria, 
 M. A. Robb, J. R. Cheeseman, G. Scalmani, V. Barone, B. Mennucci, 
 G. A. Petersson, H. Nakatsuji, M. Caricato, X. Li, H. P. Hratchian, 
 A. F. Izmaylov, J. Bloino, G. Zheng, J. L. Sonnenberg, M. Hada, 
 M. Ehara, K. Toyota, R. Fukuda, J. Hasegawa, M. Ishida, T. Nakajima, 
 Y. Honda, O. Kitao, H. Nakai, T. Vreven, J. A. Montgomery, Jr., 
 J. E. Peralta, F. Ogliaro, M. Bearpark, J. J. Heyd, E. Brothers, 
 K. N. Kudin, V. N. Staroverov, R. Kobayashi, J. Normand, 
 K. Raghavachari, A. Rendell, J. C. Burant, S. S. Iyengar, J. Tomasi, 
 M. Cossi, N. Rega, J. M. Millam, M. Klene, J. E. Knox, J. B. Cross, 
 V. Bakken, C. Adamo, J. Jaramillo, R. Gomperts, R. E. Stratmann, 
 O. Yazyev, A. J. Austin, R. Cammi, C. Pomelli, J. W. Ochterski, 
 R. L. Martin, K. Morokuma, V. G. Zakrzewski, G. A. Voth, 
 P. Salvador, J. J. Dannenberg, S. Dapprich, A. D. Daniels, 
 O. Farkas, J. B. Foresman, J. V. Ortiz, J. Cioslowski, 
 and D. J. Fox, Gaussian, Inc., Wallingford CT, 2009.
 
 ******************************************
 Gaussian 09:  EM64L-G09RevA.02 11-Jun-2009
                 5-Dec-2019 
 ******************************************
 %chk=CHI1_-180
 %NoSave
 ---------------------------------
 #SP HF/6-31G* Geom=(ModRedundant)
 ---------------------------------
 1/18=120,38=1/1;
 2/12=2,17=6,18=5,40=1/2;
 3/5=1,6=6,7=1,11=9,16=1,25=1,30=1/1,2,3;
 4//1;
 5/5=2,38=5/2;
 6/7=2,8=2,9=2,10=2,28=1/1;
 99/5=1,9=1/99;
 ------------
 paramfit run
 ------------
 Symbolic Z-matrix:
 Charge =  0 Multiplicity = 1
 C-CT--0.3208          0.        0.        0. 
 N-N--0.5622           1.44819   0.        0. 
 C-C-0.8053            2.1232    0.47592   1.07237 
 O-O--0.6151           1.59018   0.69673   2.12445 
 C-CX-0.0839           3.65051   0.59414   0.92154 
 C-CU--0.3230          4.1989    1.54925   1.98685 
 C-CU--0.0657          4.30775  -0.80912   1.02398 
 C-CU--0.0109          5.8375   -0.92829   0.90025 
 C-CU-0.0816           6.68051  -0.65471   2.16165 
 C-CM--0.2354          6.32185  -1.52694   3.34184 
 C-CM--0.2653          6.93266  -2.62938   3.7447 
 C-CU-0.1214           8.13993  -3.28959   3.12309 
 C-CU--0.0354          9.45885  -3.03466   3.87477 
 C-CU--0.0984          9.43301  -3.56716   5.31376 
 C-CU-0.1300           10.75393  -3.53637   6.12546 
 C-CU--0.3561          10.44427  -4.06052   7.53713 
 N-N--0.7186           11.71564  -4.41968   5.48016 
 C-C-0.8537            13.01521  -4.4822    5.89277 
 C-CT--0.3868          13.96452  -5.13328   4.91312 
 O-O--0.6323           13.38359  -4.05517   6.95158 
 C-C-0.7903            11.3187  -2.09811   6.09114 
 O-O--0.6136           11.97632  -1.72749   5.1562 
 N-N--0.5650           10.95808  -1.26403   7.09025 
 C-CT--0.3231          11.4921   0.0813    7.14619 
 N-N--0.7191           3.99741   1.07028  -0.42545 
 C-C-0.8539            3.58702   2.26716  -0.93409 
 C-CT--0.3903          4.32815   2.72766  -2.17214 
 O-O--0.6290           2.69713   2.90543  -0.4474 
 H-H1-0.1459          -0.40326   1.00615   0. 
 H-H1-0.1459          -0.36496  -0.516     0.87594 
 H-H1-0.1459          -0.34566  -0.52209  -0.88335 
 H-H-0.3572            1.90424   0.07091  -0.87936 
 H-HC-0.0997           3.93214   1.22176   2.98008 
 H-HC-0.0997           5.28092   1.59593   1.9075 
 H-HC-0.0997           3.79271   2.54059   1.8484 
 H-HC-0.0347           3.87484  -1.39498   0.21616 
 H-HC-0.0347           3.98016  -1.27602   1.94754 
 H-HC-0.0243           6.04192  -1.94783   0.58661 
 H-HC-0.0243           6.19586  -0.28943   0.09975 
 H-HC-0.0171           6.59108   0.38472   2.44967 
 H-HC-0.0171           7.71997  -0.80149   1.88996 
 H-HA-0.1313           5.46987  -1.19691   3.91396 
 H-HA-0.1359           6.53564  -3.12173   4.61861 
 H-HC-0.0092           8.26382  -2.95864   2.09908 
 H-HC-0.0092           7.96095  -4.36302   3.07515 
 H-HC-0.0318           10.25897  -3.49916   3.30518 
 H-HC-0.0318           9.6708   -1.97358   3.87507 
 H-HC-0.0435           9.09614  -4.60159   5.30994 
 H-HC-0.0435           8.69913  -3.00392   5.87815 
 H-HC-0.1066           10.1548  -5.10241   7.46459 
 H-HC-0.1066           9.61371  -3.52286   7.98263 
 H-HC-0.1066           11.30557  -3.99455   8.18486 
 H-H-0.3529            11.58312  -4.55064   4.50343 
 H-HC-0.1047           14.84216  -5.47107   5.44294 
 H-HC-0.1047           14.26494  -4.3925    4.17819 
 H-HC-0.1047           13.50552  -5.96656   4.39222 
 H-H-0.3615            10.63038  -1.65841   7.94018 
 H-H1-0.1469           10.99205   0.61872   7.94121 
 H-H1-0.1469           11.30776   0.58622   6.20933 
 H-H1-0.1469           12.56133   0.08276   7.33187 
 H-H-0.3570            4.82812   0.68479  -0.81644 
 H-HC-0.1060           3.71017   3.4346   -2.70629 
 H-HC-0.1060           4.58817   1.90253  -2.82568 
 H-HC-0.1060           5.24477   3.2262   -1.87372 
 
 The following ModRedundant input section has been read:
 D    *    5    7    * F                                                       
 Stoichiometry    C20H36N4O4
 Framework group  C1[X(C20H36N4O4)]
 Deg. of freedom   186
 Full point group                 C1      NOp   1
 Largest Abelian subgroup         C1      NOp   1
 Largest concise Abelian subgroup C1      NOp   1
                         Standard orientation:                         
 ---------------------------------------------------------------------
 Center     Atomic      Atomic             Coordinates (Angstroms)
 Number     Number       Type             X           Y           Z
 ---------------------------------------------------------------------
      1          6    20001001       -7.695144   -2.218075    0.488735
      2          7    20001014       -6.574474   -1.466434   -0.036985
      3          6    20001002       -5.685805   -0.897781    0.810960
      4          8    20001024       -5.646101   -1.166496    1.979703
      5          6    90000001       -4.625245    0.019387    0.175822
      6          6    90000002       -4.018822    0.925078    1.252769
      7          6    90000002       -3.535419   -0.832691   -0.529758
      8          6    90000002       -2.369672   -0.117759   -1.236537
      9          6    90000002       -1.178500    0.336700   -0.369811
     10          6    20001004       -0.526546   -0.779073    0.412675
     11          6    20001004        0.566814   -1.453736    0.096204
     12          6    90000002        1.433618   -1.275760   -1.127205
     13          6    90000002        2.740690   -0.504117   -0.870899
     14          6    90000002        3.653805   -1.206017    0.143238
     15          6    90000002        5.077480   -0.631271    0.361090
     16          6    90000002        5.753921   -1.468885    1.458487
     17          7    20001014        5.826325   -0.763725   -0.881173
     18          6    20001002        7.065553   -0.211066   -1.029285
     19          6    20001001        7.547082   -0.099051   -2.457706
     20          8    20001024        7.728472    0.159746   -0.100748
     21          6    20001002        4.954777    0.872924    0.694362
     22          8    20001024        4.848116    1.682226   -0.187444
     23          7    20001014        4.869705    1.216544    1.997691
     24          6    20001001        4.804173    2.611701    2.381673
     25          7    20001014       -5.221836    0.825203   -0.899432
     26          6    20001002       -6.249549    1.700841   -0.707764
     27          6    20001001       -6.479740    2.679825   -1.840336
     28          8    20001024       -6.931142    1.691916    0.277879
     29          1    20001035       -8.386561   -1.584204    1.031965
     30          1    20001035       -7.337222   -2.987375    1.157161
     31          1    20001035       -8.215340   -2.686293   -0.337413
     32          1    20001029       -6.695824   -1.022271   -0.916916
     33          1    20001034       -3.596296    0.344975    2.058924
     34          1    20001034       -3.239490    1.539143    0.811404
     35          1    20001034       -4.777389    1.568330    1.674349
     36          1    20001034       -4.060651   -1.412361   -1.285626
     37          1    20001034       -3.142854   -1.549468    0.184669
     38          1    20001034       -1.986701   -0.813254   -1.977644
     39          1    20001034       -2.740628    0.738377   -1.790429
     40          1    20001034       -1.493032    1.112861    0.315760
     41          1    20001034       -0.457052    0.798935   -1.034406
     42          1    20001033       -1.019122   -1.041010    1.335103
     43          1    20001033        0.889971   -2.219517    0.783888
     44          1    20001034        0.883563   -0.761738   -1.906106
     45          1    20001034        1.675448   -2.260145   -1.526079
     46          1    20001034        3.245108   -0.382213   -1.825401
     47          1    20001034        2.504784    0.495049   -0.529072
     48          1    20001034        3.781204   -2.247087   -0.145688
     49          1    20001034        3.160774   -1.209922    1.108254
     50          1    20001034        5.885832   -2.480036    1.091397
     51          1    20001034        5.135197   -1.524387    2.348139
     52          1    20001034        6.725203   -1.075607    1.718646
     53          1    20001029        5.276068   -0.777829   -1.709262
     54          1    20001034        8.623237   -0.015802   -2.462268
     55          1    20001034        7.126225    0.801377   -2.895008
     56          1    20001034        7.240962   -0.947902   -3.059475
     57          1    20001029        5.197368    0.572880    2.678607
     58          1    20001035        4.619196    2.668701    3.446313
     59          1    20001035        3.994356    3.096868    1.856854
     60          1    20001035        5.725544    3.136626    2.150843
     61          1    20001029       -4.632636    0.999130   -1.683104
     62          1    20001034       -7.496343    3.041435   -1.788086
     63          1    20001034       -6.300018    2.233328   -2.811876
     64          1    20001034       -5.806510    3.523123   -1.724525
 ---------------------------------------------------------------------
 Rotational constants (GHZ):      0.3962486      0.0439063      0.0434031
 Standard basis: 6-31G(d) (6D, 7F)
 There are   492 symmetry adapted basis functions of A   symmetry.
 Integral buffers will be    131072 words long.
 Raffenetti 1 integral format.
 Two-electron integral symmetry is turned on.
   492 basis functions,   928 primitive gaussians,   492 cartesian basis functions
   108 alpha electrons      108 beta electrons
       nuclear repulsion energy      2637.9520217163 Hartrees.
 NAtoms=   64 NActive=   64 NUniq=   64 SFac= 7.50D-01 NAtFMM=   80 NAOKFM=F Big=T
 One-electron integrals computed using PRISM.
 NBasis=   492 RedAO= T  NBF=   492
 NBsUse=   492 1.00D-06 NBFU=   492
 Harris functional with IExCor=  205 diagonalized for initial guess.
 ExpMin= 1.61D-01 ExpMax= 5.48D+03 ExpMxC= 8.25D+02 IAcc=1 IRadAn=         1 AccDes= 0.00D+00
 HarFok:  IExCor=  205 AccDes= 0.00D+00 IRadAn=         1 IDoV= 1
 ScaDFX=  1.000000  1.000000  1.000000  1.000000
 FoFCou: FMM=F IPFlag=           0 FMFlag=      100000 FMFlg1=           1
         NFxFlg=           0 DoJE=T BraDBF=F KetDBF=T FulRan=T
         Omega=  0.000000  0.000000  1.000000  0.000000  0.000000 ICntrl=     500 IOpCl=  0
         NMat0=    1 NMatS0=    1 NMatT0=    0 NMatD0=    1 NMtDS0=    0 NMtDT0=    0
         I1Cent=           4 NGrid=           0.
 Petite list used in FoFCou.
 Initial guess orbital symmetries:
       Occupied  (A) (A) (A) (A) (A) (A) (A) (A) (A) (A) (A) (A)
                 (A) (A) (A) (A) (A) (A) (A) (A) (A) (A) (A) (A)
                 (A) (A) (A) (A) (A) (A) (A) (A) (A) (A) (A) (A)
                 (A) (A) (A) (A) (A) (A) (A) (A) (A) (A) (A) (A)
                 (A) (A) (A) (A) (A) (A) (A) (A) (A) (A) (A) (A)
                 (A) (A) (A) (A) (A) (A) (A) (A) (A) (A) (A) (A)
                 (A) (A) (A) (A) (A) (A) (A) (A) (A) (A) (A) (A)
                 (A) (A) (A) (A) (A) (A) (A) (A) (A) (A) (A) (A)
                 (A) (A) (A) (A) (A) (A) (A) (A) (A) (A) (A) (A)
       Virtual   (A) (A) (A) (A) (A) (A) (A) (A) (A) (A) (A) (A)
                 (A) (A) (A) (A) (A) (A) (A) (A) (A) (A) (A) (A)
                 (A) (A) (A) (A) (A) (A) (A) (A) (A) (A) (A) (A)
                 (A) (A) (A) (A) (A) (A) (A) (A) (A) (A) (A) (A)
                 (A) (A) (A) (A) (A) (A) (A) (A) (A) (A) (A) (A)
                 (A) (A) (A) (A) (A) (A) (A) (A) (A) (A) (A) (A)
                 (A) (A) (A) (A) (A) (A) (A) (A) (A) (A) (A) (A)
                 (A) (A) (A) (A) (A) (A) (A) (A) (A) (A) (A) (A)
                 (A) (A) (A) (A) (A) (A) (A) (A) (A) (A) (A) (A)
                 (A) (A) (A) (A) (A) (A) (A) (A) (A) (A) (A) (A)
                 (A) (A) (A) (A) (A) (A) (A) (A) (A) (A) (A) (A)
                 (A) (A) (A) (A) (A) (A) (A) (A) (A) (A) (A) (A)
                 (A) (A) (A) (A) (A) (A) (A) (A) (A) (A) (A) (A)
                 (A) (A) (A) (A) (A) (A) (A) (A) (A) (A) (A) (A)
                 (A) (A) (A) (A) (A) (A) (A) (A) (A) (A) (A) (A)
                 (A) (A) (A) (A) (A) (A) (A) (A) (A) (A) (A) (A)
                 (A) (A) (A) (A) (A) (A) (A) (A) (A) (A) (A) (A)
                 (A) (A) (A) (A) (A) (A) (A) (A) (A) (A) (A) (A)
                 (A) (A) (A) (A) (A) (A) (A) (A) (A) (A) (A) (A)
                 (A) (A) (A) (A) (A) (A) (A) (A) (A) (A) (A) (A)
                 (A) (A) (A) (A) (A) (A) (A) (A) (A) (A) (A) (A)
                 (A) (A) (A) (A) (A) (A) (A) (A) (A) (A) (A) (A)
                 (A) (A) (A) (A) (A) (A) (A) (A) (A) (A) (A) (A)
                 (A) (A) (A) (A) (A) (A) (A) (A) (A) (A) (A) (A)
                 (A) (A) (A) (A) (A) (A) (A) (A) (A) (A) (A) (A)
                 (A) (A) (A) (A) (A) (A) (A) (A) (A) (A) (A) (A)
                 (A) (A) (A) (A) (A) (A) (A) (A) (A) (A) (A) (A)
                 (A) (A) (A) (A) (A) (A) (A) (A) (A) (A) (A) (A)
                 (A) (A) (A) (A) (A) (A) (A) (A) (A) (A) (A) (A)
                 (A) (A) (A) (A) (A) (A) (A) (A) (A) (A) (A) (A)
                 (A) (A) (A) (A) (A) (A) (A) (A) (A) (A) (A) (A)
                 (A) (A) (A) (A) (A) (A) (A) (A) (A) (A) (A) (A)
 The electronic state of the initial guess is 1-A.
 Requested convergence on RMS density matrix=1.00D-08 within 128 cycles.
 Requested convergence on MAX density matrix=1.00D-06.
 Requested convergence on             energy=1.00D-06.
 No special actions if energy rises.
 Integral accuracy reduced to 1.0D-05 until final iterations.
 Initial convergence to 1.0D-05 achieved.  Increase integral accuracy.
 SCF Done:  E(RHF) =  -1295.61561399     A.U. after   14 cycles
             Convg  =    0.6623D-08             -V/T =  2.0012

 **********************************************************************

            Population analysis using the SCF density.

 **********************************************************************

 Orbital symmetries:
       Occupied  (A) (A) (A) (A) (A) (A) (A) (A) (A) (A) (A) (A)
                 (A) (A) (A) (A) (A) (A) (A) (A) (A) (A) (A) (A)
                 (A) (A) (A) (A) (A) (A) (A) (A) (A) (A) (A) (A)
                 (A) (A) (A) (A) (A) (A) (A) (A) (A) (A) (A) (A)
                 (A) (A) (A) (A) (A) (A) (A) (A) (A) (A) (A) (A)
                 (A) (A) (A) (A) (A) (A) (A) (A) (A) (A) (A) (A)
                 (A) (A) (A) (A) (A) (A) (A) (A) (A) (A) (A) (A)
                 (A) (A) (A) (A) (A) (A) (A) (A) (A) (A) (A) (A)
                 (A) (A) (A) (A) (A) (A) (A) (A) (A) (A) (A) (A)
       Virtual   (A) (A) (A) (A) (A) (A) (A) (A) (A) (A) (A) (A)
                 (A) (A) (A) (A) (A) (A) (A) (A) (A) (A) (A) (A)
                 (A) (A) (A) (A) (A) (A) (A) (A) (A) (A) (A) (A)
                 (A) (A) (A) (A) (A) (A) (A) (A) (A) (A) (A) (A)
                 (A) (A) (A) (A) (A) (A) (A) (A) (A) (A) (A) (A)
                 (A) (A) (A) (A) (A) (A) (A) (A) (A) (A) (A) (A)
                 (A) (A) (A) (A) (A) (A) (A) (A) (A) (A) (A) (A)
                 (A) (A) (A) (A) (A) (A) (A) (A) (A) (A) (A) (A)
                 (A) (A) (A) (A) (A) (A) (A) (A) (A) (A) (A) (A)
                 (A) (A) (A) (A) (A) (A) (A) (A) (A) (A) (A) (A)
                 (A) (A) (A) (A) (A) (A) (A) (A) (A) (A) (A) (A)
                 (A) (A) (A) (A) (A) (A) (A) (A) (A) (A) (A) (A)
                 (A) (A) (A) (A) (A) (A) (A) (A) (A) (A) (A) (A)
                 (A) (A) (A) (A) (A) (A) (A) (A) (A) (A) (A) (A)
                 (A) (A) (A) (A) (A) (A) (A) (A) (A) (A) (A) (A)
                 (A) (A) (A) (A) (A) (A) (A) (A) (A) (A) (A) (A)
                 (A) (A) (A) (A) (A) (A) (A) (A) (A) (A) (A) (A)
                 (A) (A) (A) (A) (A) (A) (A) (A) (A) (A) (A) (A)
                 (A) (A) (A) (A) (A) (A) (A) (A) (A) (A) (A) (A)
                 (A) (A) (A) (A) (A) (A) (A) (A) (A) (A) (A) (A)
                 (A) (A) (A) (A) (A) (A) (A) (A) (A) (A) (A) (A)
                 (A) (A) (A) (A) (A) (A) (A) (A) (A) (A) (A) (A)
                 (A) (A) (A) (A) (A) (A) (A) (A) (A) (A) (A) (A)
                 (A) (A) (A) (A) (A) (A) (A) (A) (A) (A) (A) (A)
                 (A) (A) (A) (A) (A) (A) (A) (A) (A) (A) (A) (A)
                 (A) (A) (A) (A) (A) (A) (A) (A) (A) (A) (A) (A)
                 (A) (A) (A) (A) (A) (A) (A) (A) (A) (A) (A) (A)
                 (A) (A) (A) (A) (A) (A) (A) (A) (A) (A) (A) (A)
                 (A) (A) (A) (A) (A) (A) (A) (A) (A) (A) (A) (A)
                 (A) (A) (A) (A) (A) (A) (A) (A) (A) (A) (A) (A)
                 (A) (A) (A) (A) (A) (A) (A) (A) (A) (A) (A) (A)
                 (A) (A) (A) (A) (A) (A) (A) (A) (A) (A) (A) (A)
 The electronic state is 1-A.
 Alpha  occ. eigenvalues --  -20.53439 -20.52310 -20.51942 -20.51542 -15.59267
 Alpha  occ. eigenvalues --  -15.58213 -15.57815 -15.57105 -11.35736 -11.34520
 Alpha  occ. eigenvalues --  -11.34015 -11.33581 -11.28888 -11.28881 -11.25305
 Alpha  occ. eigenvalues --  -11.24558 -11.24220 -11.24197 -11.23841 -11.23783
 Alpha  occ. eigenvalues --  -11.23199 -11.23190 -11.23052 -11.22900 -11.22869
 Alpha  occ. eigenvalues --  -11.22772 -11.22029 -11.20679  -1.40363  -1.39671
 Alpha  occ. eigenvalues --   -1.38399  -1.38311  -1.25243  -1.23846  -1.22928
 Alpha  occ. eigenvalues --   -1.21697  -1.11526  -1.09632  -1.07469  -1.04711
 Alpha  occ. eigenvalues --   -1.01527  -0.99595  -0.99063  -0.95857  -0.95214
 Alpha  occ. eigenvalues --   -0.94921  -0.92700  -0.87337  -0.85901  -0.82900
 Alpha  occ. eigenvalues --   -0.81078  -0.80498  -0.79767  -0.77180  -0.76750
 Alpha  occ. eigenvalues --   -0.72635  -0.71651  -0.70766  -0.69223  -0.68445
 Alpha  occ. eigenvalues --   -0.67379  -0.65616  -0.64835  -0.64085  -0.63201
 Alpha  occ. eigenvalues --   -0.62577  -0.62240  -0.62193  -0.61802  -0.61666
 Alpha  occ. eigenvalues --   -0.61274  -0.60309  -0.59572  -0.59326  -0.58947
 Alpha  occ. eigenvalues --   -0.58000  -0.57588  -0.56743  -0.56584  -0.56290
 Alpha  occ. eigenvalues --   -0.55735  -0.55272  -0.55035  -0.54352  -0.54174
 Alpha  occ. eigenvalues --   -0.53638  -0.53282  -0.52952  -0.52745  -0.51958
 Alpha  occ. eigenvalues --   -0.51564  -0.50425  -0.50107  -0.49573  -0.49015
 Alpha  occ. eigenvalues --   -0.48494  -0.47183  -0.46858  -0.45439  -0.42781
 Alpha  occ. eigenvalues --   -0.41830  -0.41793  -0.41333  -0.39144  -0.38939
 Alpha  occ. eigenvalues --   -0.38607  -0.37914  -0.35331
 Alpha virt. eigenvalues --    0.16397   0.18990   0.19353   0.19839   0.21243
 Alpha virt. eigenvalues --    0.21413   0.21777   0.22674   0.23056   0.23657
 Alpha virt. eigenvalues --    0.24819   0.25868   0.26016   0.26388   0.27232
 Alpha virt. eigenvalues --    0.27257   0.27888   0.28633   0.28923   0.29429
 Alpha virt. eigenvalues --    0.29586   0.30255   0.30920   0.31534   0.31858
 Alpha virt. eigenvalues --    0.32030   0.32270   0.32564   0.32975   0.33340
 Alpha virt. eigenvalues --    0.33767   0.34152   0.34375   0.34558   0.35085
 Alpha virt. eigenvalues --    0.35365   0.35609   0.36091   0.36395   0.37293
 Alpha virt. eigenvalues --    0.37820   0.38776   0.38980   0.39633   0.39914
 Alpha virt. eigenvalues --    0.40607   0.41245   0.42131   0.42752   0.43843
 Alpha virt. eigenvalues --    0.44184   0.44759   0.45595   0.46417   0.47438
 Alpha virt. eigenvalues --    0.48262   0.48787   0.49348   0.51895   0.52780
 Alpha virt. eigenvalues --    0.52962   0.55220   0.57459   0.58384   0.59339
 Alpha virt. eigenvalues --    0.61737   0.63818   0.64051   0.67688   0.69779
 Alpha virt. eigenvalues --    0.71073   0.71162   0.72212   0.72429   0.73057
 Alpha virt. eigenvalues --    0.73924   0.74586   0.75087   0.75873   0.75916
 Alpha virt. eigenvalues --    0.76390   0.76567   0.77532   0.78181   0.78348
 Alpha virt. eigenvalues --    0.78587   0.79557   0.80568   0.81907   0.82784
 Alpha virt. eigenvalues --    0.83413   0.83764   0.84421   0.85161   0.86698
 Alpha virt. eigenvalues --    0.87162   0.87776   0.88492   0.89391   0.90533
 Alpha virt. eigenvalues --    0.90972   0.91589   0.92179   0.92591   0.93937
 Alpha virt. eigenvalues --    0.94130   0.95468   0.95871   0.96574   0.97298
 Alpha virt. eigenvalues --    0.98074   0.98536   0.99464   1.00037   1.00609
 Alpha virt. eigenvalues --    1.01308   1.01769   1.02088   1.02476   1.03171
 Alpha virt. eigenvalues --    1.03722   1.04554   1.04830   1.06396   1.06743
 Alpha virt. eigenvalues --    1.07246   1.07903   1.08709   1.10015   1.10207
 Alpha virt. eigenvalues --    1.12393   1.12678   1.12979   1.13462   1.13881
 Alpha virt. eigenvalues --    1.14140   1.14617   1.14805   1.14997   1.15387
 Alpha virt. eigenvalues --    1.15414   1.15757   1.16292   1.16801   1.17185
 Alpha virt. eigenvalues --    1.17967   1.18531   1.18652   1.18835   1.19130
 Alpha virt. eigenvalues --    1.19347   1.20306   1.20527   1.21073   1.21364
 Alpha virt. eigenvalues --    1.21683   1.21929   1.22164   1.22447   1.22995
 Alpha virt. eigenvalues --    1.23377   1.23565   1.24751   1.25281   1.25652
 Alpha virt. eigenvalues --    1.26296   1.27103   1.27761   1.28697   1.29275
 Alpha virt. eigenvalues --    1.29544   1.30118   1.30668   1.31119   1.31365
 Alpha virt. eigenvalues --    1.32478   1.34518   1.35339   1.35934   1.38207
 Alpha virt. eigenvalues --    1.38583   1.39401   1.40776   1.40907   1.41711
 Alpha virt. eigenvalues --    1.42218   1.45567   1.46278   1.47242   1.48165
 Alpha virt. eigenvalues --    1.49254   1.51007   1.53370   1.53615   1.54263
 Alpha virt. eigenvalues --    1.56864   1.57612   1.59305   1.60597   1.60908
 Alpha virt. eigenvalues --    1.61757   1.62588   1.63491   1.65559   1.68389
 Alpha virt. eigenvalues --    1.69647   1.70759   1.72135   1.72905   1.73539
 Alpha virt. eigenvalues --    1.73697   1.75681   1.76135   1.78345   1.79676
 Alpha virt. eigenvalues --    1.80177   1.81247   1.82608   1.86965   1.88367
 Alpha virt. eigenvalues --    1.89272   1.89883   1.90961   1.93228   1.94521
 Alpha virt. eigenvalues --    1.95623   1.96912   1.98161   1.99519   2.01922
 Alpha virt. eigenvalues --    2.04143   2.05729   2.06100   2.06773   2.07327
 Alpha virt. eigenvalues --    2.08175   2.09576   2.11291   2.11792   2.12041
 Alpha virt. eigenvalues --    2.13013   2.13859   2.14317   2.14992   2.15993
 Alpha virt. eigenvalues --    2.16405   2.17134   2.17512   2.18945   2.19545
 Alpha virt. eigenvalues --    2.20387   2.20810   2.21960   2.22908   2.23803
 Alpha virt. eigenvalues --    2.24173   2.24914   2.25264   2.25876   2.27113
 Alpha virt. eigenvalues --    2.27429   2.28305   2.30094   2.30320   2.30854
 Alpha virt. eigenvalues --    2.32275   2.32570   2.33868   2.34771   2.35157
 Alpha virt. eigenvalues --    2.36227   2.36529   2.36965   2.38511   2.39009
 Alpha virt. eigenvalues --    2.39162   2.41222   2.41331   2.42295   2.43553
 Alpha virt. eigenvalues --    2.44319   2.45715   2.46930   2.49188   2.49672
 Alpha virt. eigenvalues --    2.51689   2.53244   2.53955   2.55166   2.55845
 Alpha virt. eigenvalues --    2.56704   2.57135   2.57917   2.59101   2.59510
 Alpha virt. eigenvalues --    2.60724   2.62888   2.64109   2.64477   2.65033
 Alpha virt. eigenvalues --    2.66317   2.68772   2.69714   2.71298   2.71701
 Alpha virt. eigenvalues --    2.71799   2.72798   2.73916   2.74497   2.75416
 Alpha virt. eigenvalues --    2.76596   2.77472   2.78515   2.79048   2.80579
 Alpha virt. eigenvalues --    2.80972   2.82319   2.83414   2.84861   2.86050
 Alpha virt. eigenvalues --    2.86466   2.87812   2.90688   2.91363   2.95471
 Alpha virt. eigenvalues --    2.95614   2.96449   2.98096   2.99121   3.02355
 Alpha virt. eigenvalues --    3.02864   3.05032   3.05141   3.05734   3.07708
 Alpha virt. eigenvalues --    3.10698   3.10945   3.12772   3.14347   3.15448
 Alpha virt. eigenvalues --    3.15582   3.17844   3.21054   3.28827   3.30284
 Alpha virt. eigenvalues --    3.33961   3.34096   3.38367   3.40004   3.40538
 Alpha virt. eigenvalues --    3.42355   3.42387   3.53406   3.55402   3.57297
 Alpha virt. eigenvalues --    3.60097   4.38134   4.40914   4.45014   4.47518
 Alpha virt. eigenvalues --    4.48872   4.51606   4.54009   4.57621   4.59238
 Alpha virt. eigenvalues --    4.62365   4.65995   4.67242   4.67968   4.69906
 Alpha virt. eigenvalues --    4.74197   4.75052   4.77822   4.82080   4.83300
 Alpha virt. eigenvalues --    4.88027   4.88922   4.93592   4.95978   4.98534
 Alpha virt. eigenvalues --    5.02520   5.05153   5.22508   5.23271
          Condensed to atoms (all electrons):
 Mulliken atomic charges:
              1
     1  C   -0.278194
     2  N   -0.781433
     3  C    0.813199
     4  O   -0.620896
     5  C    0.098262
     6  C   -0.476572
     7  C   -0.338955
     8  C   -0.322635
     9  C   -0.352075
    10  C   -0.179398
    11  C   -0.172849
    12  C   -0.355714
    13  C   -0.310582
    14  C   -0.330008
    15  C    0.090730
    16  C   -0.510071
    17  N   -0.787254
    18  C    0.767325
    19  C   -0.595790
    20  O   -0.613233
    21  C    0.820280
    22  O   -0.640725
    23  N   -0.805817
    24  C   -0.275340
    25  N   -0.847288
    26  C    0.744935
    27  C   -0.590314
    28  O   -0.592073
    29  H    0.184884
    30  H    0.198468
    31  H    0.161479
    32  H    0.389708
    33  H    0.193679
    34  H    0.145984
    35  H    0.212383
    36  H    0.178139
    37  H    0.203140
    38  H    0.179467
    39  H    0.140138
    40  H    0.183157
    41  H    0.177094
    42  H    0.186094
    43  H    0.178722
    44  H    0.173428
    45  H    0.165082
    46  H    0.152146
    47  H    0.196958
    48  H    0.175206
    49  H    0.186161
    50  H    0.184647
    51  H    0.149709
    52  H    0.227253
    53  H    0.389236
    54  H    0.212006
    55  H    0.208629
    56  H    0.176642
    57  H    0.396488
    58  H    0.166428
    59  H    0.197000
    60  H    0.185623
    61  H    0.391887
    62  H    0.218411
    63  H    0.176490
    64  H    0.200522
 Sum of Mulliken atomic charges =   0.00000
 Mulliken charges with hydrogens summed into heavy atoms:
              1
     1  C    0.266636
     2  N   -0.391725
     3  C    0.813199
     4  O   -0.620896
     5  C    0.098262
     6  C    0.075475
     7  C    0.042325
     8  C   -0.003030
     9  C    0.008176
    10  C    0.006695
    11  C    0.005873
    12  C   -0.017203
    13  C    0.038521
    14  C    0.031359
    15  C    0.090730
    16  C    0.051538
    17  N   -0.398018
    18  C    0.767325
    19  C    0.001486
    20  O   -0.613233
    21  C    0.820280
    22  O   -0.640725
    23  N   -0.409329
    24  C    0.273710
    25  N   -0.455401
    26  C    0.744935
    27  C    0.005108
    28  O   -0.592073
 Sum of Mulliken charges with hydrogens summed into heavy atoms =   0.00000
 Electronic spatial extent (au):  <R**2>=          24274.7810
 Charge=              0.0000 electrons
 Dipole moment (field-independent basis, Debye):
    X=             -0.0466    Y=             -1.3146    Z=             -5.2837  Tot=              5.4450
 Quadrupole moment (field-independent basis, Debye-Ang):
   XX=           -216.1664   YY=           -170.8584   ZZ=           -160.3832
   XY=            -12.0623   XZ=             34.1188   YZ=              2.4265
 Traceless Quadrupole moment (field-independent basis, Debye-Ang):
   XX=            -33.6971   YY=             11.6110   ZZ=             22.0861
   XY=            -12.0623   XZ=             34.1188   YZ=              2.4265
 Octapole moment (field-independent basis, Debye-Ang**2):
  XXX=           -175.8601  YYY=             20.9439  ZZZ=             -9.4579  XYY=            -19.3068
  XXY=           -103.8274  XXZ=           -241.6862  XZZ=             97.2389  YZZ=             25.2566
  YYZ=              1.5520  XYZ=             39.4975
 Hexadecapole moment (field-independent basis, Debye-Ang**3):
 XXXX=         -31112.6258 YYYY=          -2041.0608 ZZZZ=          -1701.5967 XXXY=            206.0612
 XXXZ=            824.8782 YYYX=              8.5186 YYYZ=             -3.2793 ZZZX=            156.1862
 ZZZY=             41.5892 XXYY=          -4934.8472 XXZZ=          -4538.5216 YYZZ=           -614.8330
 XXYZ=             -7.7195 YYXZ=            134.3295 ZZXY=            -28.0030
 N-N= 2.637952021716D+03 E-N=-8.307440665900D+03  KE= 1.294032525310D+03
 1\1\GINC-MOSURA\SP\RHF\6-31G(d)\C20H36N4O4\MARIE\05-Dec-2019\0\\#SP HF
 /6-31G* Geom=(ModRedundant)\\paramfit run\\0,1\C,0,0.,0.,0.\N,0,1.4481
 87,0.,0.\C,0,2.1232,0.47592,1.072365\O,0,1.590179,0.696732,2.124447\C,
 0,3.650505,0.594143,0.921539\C,0,4.198902,1.549248,1.986845\C,0,4.3077
 51,-0.809116,1.023981\C,0,5.837497,-0.928287,0.900254\C,0,6.680512,-0.
 654712,2.16165\C,0,6.321854,-1.526941,3.341844\C,0,6.932663,-2.629383,
 3.744698\C,0,8.139928,-3.289588,3.123091\C,0,9.458852,-3.034664,3.8747
 67\C,0,9.433006,-3.56716,5.313758\C,0,10.753929,-3.536371,6.125459\C,0
 ,10.444271,-4.060524,7.537134\N,0,11.715636,-4.419683,5.480161\C,0,13.
 015214,-4.4822,5.892769\C,0,13.964524,-5.133277,4.913119\O,0,13.383591
 ,-4.055171,6.951583\C,0,11.318702,-2.098115,6.091137\O,0,11.976321,-1.
 727486,5.156204\N,0,10.958082,-1.264026,7.090251\C,0,11.492095,0.0813,
 7.146189\N,0,3.997412,1.070275,-0.425452\C,0,3.587019,2.267163,-0.9340
 86\C,0,4.328148,2.727659,-2.172145\O,0,2.697134,2.905425,-0.447397\H,0
 ,-0.403259,1.006147,0.\H,0,-0.36496,-0.516002,0.875939\H,0,-0.345658,-
 0.522086,-0.883346\H,0,1.904244,0.070913,-0.879357\H,0,3.932135,1.2217
 6,2.980082\H,0,5.28092,1.595925,1.9075\H,0,3.792711,2.540594,1.848395\
 H,0,3.874837,-1.394982,0.216164\H,0,3.980161,-1.276021,1.947543\H,0,6.
 041915,-1.947825,0.586606\H,0,6.195862,-0.289426,0.099751\H,0,6.591083
 ,0.384717,2.449666\H,0,7.719971,-0.801491,1.889958\H,0,5.469867,-1.196
 908,3.913956\H,0,6.535636,-3.121733,4.61861\H,0,8.263817,-2.958644,2.0
 99082\H,0,7.960948,-4.363023,3.075154\H,0,10.258966,-3.499162,3.305178
 \H,0,9.670797,-1.973575,3.875072\H,0,9.096141,-4.601589,5.309943\H,0,8
 .699131,-3.003923,5.878153\H,0,10.154801,-5.10241,7.464594\H,0,9.61370
 8,-3.522859,7.982625\H,0,11.305568,-3.994551,8.184864\H,0,11.583116,-4
 .550644,4.503432\H,0,14.842163,-5.471066,5.442939\H,0,14.264939,-4.392
 499,4.178188\H,0,13.505517,-5.966558,4.392218\H,0,10.63038,-1.658407,7
 .940184\H,0,10.992051,0.618721,7.941209\H,0,11.307756,0.586216,6.20933
 \H,0,12.561335,0.08276,7.331869\H,0,4.82812,0.684785,-0.816437\H,0,3.7
 10173,3.434604,-2.706288\H,0,4.588171,1.902533,-2.825678\H,0,5.244771,
 3.226201,-1.873716\\Version=EM64L-G09RevA.02\State=1-A\HF=-1295.615614
 \RMSD=6.623e-09\Dipole=0.4720004,-1.2464246,-1.6771257\Quadrupole=-32.
 6487132,4.3705469,28.2781662,15.6872774,-4.0682422,2.8371971\PG=C01 [X
 (C20H36N4O4)]\\@


 JUST WHEN YOU THINK YOU'VE GOT THE WORLD ON A STRING,
 YOU FIND OUT IT'S YOUR LEASH.
 Job cpu time:  0 days  0 hours  4 minutes 57.1 seconds.
 File lengths (MBytes):  RWF=    132 Int=      0 D2E=      0 Chk=     10 Scr=      1
 Normal termination of Gaussian 09 at Thu Dec  5 15:59:24 2019.
