 Entering Gaussian System, Link 0=g09
 Input=CHI1_-60.gau
 Output=CHI1_-60.log
 Initial command:
 /home/marie/Utilities//g09/l1.exe /tmp/g09/Gau-2140.inp -scrdir=/tmp/g09/
 Entering Link 1 = /home/marie/Utilities//g09/l1.exe PID=      2168.
  
 Copyright (c) 1988,1990,1992,1993,1995,1998,2003,2009, Gaussian, Inc.
                  All Rights Reserved.
  
 This is part of the Gaussian(R) 09 program.  It is based on
 the Gaussian(R) 03 system (copyright 2003, Gaussian, Inc.),
 the Gaussian(R) 98 system (copyright 1998, Gaussian, Inc.),
 the Gaussian(R) 94 system (copyright 1995, Gaussian, Inc.),
 the Gaussian 92(TM) system (copyright 1992, Gaussian, Inc.),
 the Gaussian 90(TM) system (copyright 1990, Gaussian, Inc.),
 the Gaussian 88(TM) system (copyright 1988, Gaussian, Inc.),
 the Gaussian 86(TM) system (copyright 1986, Carnegie Mellon
 University), and the Gaussian 82(TM) system (copyright 1983,
 Carnegie Mellon University). Gaussian is a federally registered
 trademark of Gaussian, Inc.
  
 This software contains proprietary and confidential information,
 including trade secrets, belonging to Gaussian, Inc.
  
 This software is provided under written license and may be
 used, copied, transmitted, or stored only in accord with that
 written license.
  
 The following legend is applicable only to US Government
 contracts under FAR:
  
                    RESTRICTED RIGHTS LEGEND
  
 Use, reproduction and disclosure by the US Government is
 subject to restrictions as set forth in subparagraphs (a)
 and (c) of the Commercial Computer Software - Restricted
 Rights clause in FAR 52.227-19.
  
 Gaussian, Inc.
 340 Quinnipiac St., Bldg. 40, Wallingford CT 06492
  
  
 ---------------------------------------------------------------
 Warning -- This program may not be used in any manner that
 competes with the business of Gaussian, Inc. or will provide
 assistance to any competitor of Gaussian, Inc.  The licensee
 of this program is prohibited from giving any competitor of
 Gaussian, Inc. access to this program.  By using this program,
 the user acknowledges that Gaussian, Inc. is engaged in the
 business of creating and licensing software in the field of
 computational chemistry and represents and warrants to the
 licensee that it is not a competitor of Gaussian, Inc. and that
 it will not use this program in any manner prohibited above.
 ---------------------------------------------------------------
  

 Cite this work as:
 Gaussian 09, Revision A.02,
 M. J. Frisch, G. W. Trucks, H. B. Schlegel, G. E. Scuseria, 
 M. A. Robb, J. R. Cheeseman, G. Scalmani, V. Barone, B. Mennucci, 
 G. A. Petersson, H. Nakatsuji, M. Caricato, X. Li, H. P. Hratchian, 
 A. F. Izmaylov, J. Bloino, G. Zheng, J. L. Sonnenberg, M. Hada, 
 M. Ehara, K. Toyota, R. Fukuda, J. Hasegawa, M. Ishida, T. Nakajima, 
 Y. Honda, O. Kitao, H. Nakai, T. Vreven, J. A. Montgomery, Jr., 
 J. E. Peralta, F. Ogliaro, M. Bearpark, J. J. Heyd, E. Brothers, 
 K. N. Kudin, V. N. Staroverov, R. Kobayashi, J. Normand, 
 K. Raghavachari, A. Rendell, J. C. Burant, S. S. Iyengar, J. Tomasi, 
 M. Cossi, N. Rega, J. M. Millam, M. Klene, J. E. Knox, J. B. Cross, 
 V. Bakken, C. Adamo, J. Jaramillo, R. Gomperts, R. E. Stratmann, 
 O. Yazyev, A. J. Austin, R. Cammi, C. Pomelli, J. W. Ochterski, 
 R. L. Martin, K. Morokuma, V. G. Zakrzewski, G. A. Voth, 
 P. Salvador, J. J. Dannenberg, S. Dapprich, A. D. Daniels, 
 O. Farkas, J. B. Foresman, J. V. Ortiz, J. Cioslowski, 
 and D. J. Fox, Gaussian, Inc., Wallingford CT, 2009.
 
 ******************************************
 Gaussian 09:  EM64L-G09RevA.02 11-Jun-2009
                 5-Dec-2019 
 ******************************************
 %chk=CHI1_-60
 %NoSave
 ---------------------------------
 #SP HF/6-31G* Geom=(ModRedundant)
 ---------------------------------
 1/18=120,38=1/1;
 2/12=2,17=6,18=5,40=1/2;
 3/5=1,6=6,7=1,11=9,16=1,25=1,30=1/1,2,3;
 4//1;
 5/5=2,38=5/2;
 6/7=2,8=2,9=2,10=2,28=1/1;
 99/5=1,9=1/99;
 ------------
 paramfit run
 ------------
 Symbolic Z-matrix:
 Charge =  0 Multiplicity = 1
 C-CT--0.3208          0.        0.        0. 
 N-N--0.5622           1.44819   0.        0. 
 C-C-0.8053            2.1232    0.47592   1.07237 
 O-O--0.6151           1.59018   0.69673   2.12445 
 C-CX-0.0839           3.65051   0.59414   0.92154 
 C-CU--0.3230          4.1989    1.54925   1.98685 
 C-CU--0.0657          4.30775  -0.80912   1.02398 
 C-CU--0.0109          4.12071  -1.62923   2.31319 
 C-CU-0.0816           2.81885  -2.44151   2.46155 
 C-CM--0.2354          2.57786  -3.42653   1.34176 
 C-CM--0.2653          2.83359  -4.72475   1.34103 
 C-CU-0.1214           3.43118  -5.54342   2.46014 
 C-CU--0.0354          2.40854  -6.38264   3.24721 
 C-CU--0.0984          1.68458  -7.41133   2.36824 
 C-CU-0.1300           0.7584   -8.44139   3.06523 
 C-CU--0.3561          0.11506  -9.30498   1.96807 
 N-N--0.7186           1.57108  -9.28413   3.93176 
 C-C-0.8537            1.00429  -10.18884   4.78224 
 C-CT--0.3868          1.92099  -10.70441   5.8679 
 O-O--0.6323          -0.13453  -10.55236   4.68178 
 C-C-0.7903           -0.25405  -7.67503   3.94635 
 O-O--0.6136           0.05253  -7.31981   5.05258 
 N-N--0.5650          -1.43679  -7.33976   3.38714 
 C-CT--0.3231         -2.45036  -6.66601   4.1726 
 N-N--0.7191           3.99741   1.07028  -0.42545 
 C-C-0.8539            3.58702   2.26716  -0.93409 
 C-CT--0.3903          4.32815   2.72766  -2.17214 
 O-O--0.6290           2.69713   2.90543  -0.4474 
 H-H1-0.1459          -0.40326   1.00615   0. 
 H-H1-0.1459          -0.36496  -0.516     0.87594 
 H-H1-0.1459          -0.34566  -0.52209  -0.88335 
 H-H-0.3572            1.90424   0.07091  -0.87936 
 H-HC-0.0997           3.93214   1.22176   2.98008 
 H-HC-0.0997           5.28092   1.59593   1.9075 
 H-HC-0.0997           3.79271   2.54059   1.8484 
 H-HC-0.0347           5.37578  -0.64182   0.90336 
 H-HC-0.0347           3.99398  -1.3994    0.16877 
 H-HC-0.0243           4.94884  -2.33076   2.35397 
 H-HC-0.0243           4.22774  -0.98632   3.1807 
 H-HC-0.0171           1.97055  -1.77327   2.53373 
 H-HC-0.0171           2.87223  -2.96093   3.41191 
 H-HA-0.1313           2.14301  -3.0081    0.44848 
 H-HA-0.1359           2.58871  -5.27497   0.44602 
 H-HC-0.0092           3.95223  -4.90067   3.15931 
 H-HC-0.0092           4.1852   -6.20713   2.03877 
 H-HC-0.0318           2.93834  -6.87288   4.05922 
 H-HC-0.0318           1.68997  -5.72318   3.71584 
 H-HC-0.0435           2.41783  -7.98533   1.80575 
 H-HC-0.0435           1.08102  -6.88136   1.64078 
 H-HC-0.1066           0.89295  -9.87754   1.4765 
 H-HC-0.1066          -0.36193  -8.6894    1.21248 
 H-HC-0.1066          -0.60555  -9.99737   2.3768 
 H-H-0.3529            2.40778  -8.86527   4.2682 
 H-HC-0.1047           1.53862  -11.64413   6.23639 
 H-HC-0.1047           1.92857  -9.98759   6.68352 
 H-HC-0.1047           2.93861  -10.83378   5.51561 
 H-H-0.3615           -1.74174  -7.84385   2.58827 
 H-H1-0.1469          -3.26254  -6.38069   3.51696 
 H-H1-0.1469          -2.0323   -5.77769   4.62286 
 H-H1-0.1469          -2.83614  -7.30191   4.9629 
 H-H-0.3570            4.82812   0.68479  -0.81644 
 H-HC-0.1060           3.71017   3.4346   -2.70629 
 H-HC-0.1060           4.58817   1.90253  -2.82568 
 H-HC-0.1060           5.24477   3.2262   -1.87372 
 
 The following ModRedundant input section has been read:
 D    *    5    7    * F                                                       
 Stoichiometry    C20H36N4O4
 Framework group  C1[X(C20H36N4O4)]
 Deg. of freedom   186
 Full point group                 C1      NOp   1
 Largest Abelian subgroup         C1      NOp   1
 Largest concise Abelian subgroup C1      NOp   1
                         Standard orientation:                         
 ---------------------------------------------------------------------
 Center     Atomic      Atomic             Coordinates (Angstroms)
 Number     Number       Type             X           Y           Z
 ---------------------------------------------------------------------
      1          6    20001001       -3.761277    2.885294    0.549878
      2          7    20001014       -4.111882    1.480228    0.560419
      3          6    20001002       -4.325073    0.828939   -0.606835
      4          8    20001024       -4.022575    1.294857   -1.670396
      5          6    90000001       -4.855068   -0.612178   -0.498805
      6          6    90000002       -5.472906   -1.033271   -1.836265
      7          6    90000002       -3.710458   -1.572024   -0.074346
      8          6    90000002       -2.467512   -1.696141   -0.973965
      9          6    90000002       -1.366103   -0.628033   -0.823355
     10          6    20001004       -0.814979   -0.506654    0.578003
     11          6    20001004        0.295396   -1.043708    1.056957
     12          6    90000002        1.286793   -1.912551    0.320750
     13          6    90000002        2.571315   -1.182287   -0.110860
     14          6    90000002        3.364160   -0.625022    1.079000
     15          6    90000002        4.765775   -0.022237    0.801925
     16          6    90000002        5.312652    0.514383    2.134747
     17          7    20001014        5.637315   -1.081014    0.311067
     18          6    20001002        6.893098   -0.813659   -0.152171
     19          6    20001001        7.521621   -1.921436   -0.966169
     20          8    20001024        7.461534    0.219904    0.066393
     21          6    20001002        4.631007    1.046598   -0.306296
     22          8    20001024        4.628032    0.722673   -1.463445
     23          7    20001014        4.416329    2.322114    0.082232
     24          6    20001001        4.331583    3.380544   -0.903032
     25          7    20001014       -5.846511   -0.714230    0.581962
     26          6    20001002       -7.008458   -0.001070    0.612874
     27          6    20001001       -8.042611   -0.499480    1.600920
     28          8    20001024       -7.196997    0.957969   -0.080550
     29          1    20001035       -4.572398    3.500535    0.177708
     30          1    20001035       -2.896409    3.040932   -0.078216
     31          1    20001035       -3.519132    3.188721    1.560645
     32          1    20001029       -4.598013    1.137445    1.355694
     33          1    20001034       -4.760501   -0.942127   -2.641935
     34          1    20001034       -5.805143   -2.065109   -1.771711
     35          1    20001034       -6.319020   -0.405269   -2.074238
     36          1    20001034       -4.162882   -2.559496   -0.015762
     37          1    20001034       -3.404464   -1.317406    0.935514
     38          1    20001034       -2.019926   -2.659685   -0.748422
     39          1    20001034       -2.766632   -1.739640   -2.016082
     40          1    20001034       -1.738703    0.336883   -1.141904
     41          1    20001034       -0.573052   -0.886137   -1.516381
     42          1    20001033       -1.404230    0.093635    1.252207
     43          1    20001033        0.534426   -0.843210    2.089636
     44          1    20001034        0.827918   -2.341706   -0.561702
     45          1    20001034        1.554365   -2.751661    0.961759
     46          1    20001034        3.173637   -1.882931   -0.682418
     47          1    20001034        2.315760   -0.383021   -0.794011
     48          1    20001034        3.505714   -1.410551    1.818216
     49          1    20001034        2.773782    0.147960    1.556810
     50          1    20001034        5.467227   -0.320906    2.807785
     51          1    20001034        4.604332    1.186312    2.608218
     52          1    20001034        6.257344    1.020391    2.003396
     53          1    20001029        5.175683   -1.831660   -0.149516
     54          1    20001034        8.593548   -1.794818   -0.966874
     55          1    20001034        7.161435   -1.847042   -1.987862
     56          1    20001034        7.267238   -2.903937   -0.583593
     57          1    20001029        4.662307    2.581993    1.008119
     58          1    20001035        4.038128    4.294622   -0.403766
     59          1    20001035        3.587624    3.129729   -1.644816
     60          1    20001035        5.279422    3.537868   -1.407615
     61          1    20001029       -5.838029   -1.568713    1.093170
     62          1    20001034       -8.720827    0.308443    1.833849
     63          1    20001034       -7.591942   -0.873091    2.513534
     64          1    20001034       -8.609034   -1.306300    1.147039
 ---------------------------------------------------------------------
 Rotational constants (GHZ):      0.4161779      0.0492212      0.0472905
 Standard basis: 6-31G(d) (6D, 7F)
 There are   492 symmetry adapted basis functions of A   symmetry.
 Integral buffers will be    131072 words long.
 Raffenetti 1 integral format.
 Two-electron integral symmetry is turned on.
   492 basis functions,   928 primitive gaussians,   492 cartesian basis functions
   108 alpha electrons      108 beta electrons
       nuclear repulsion energy      2683.7785630443 Hartrees.
 NAtoms=   64 NActive=   64 NUniq=   64 SFac= 7.50D-01 NAtFMM=   80 NAOKFM=F Big=T
 One-electron integrals computed using PRISM.
 NBasis=   492 RedAO= T  NBF=   492
 NBsUse=   492 1.00D-06 NBFU=   492
 Harris functional with IExCor=  205 diagonalized for initial guess.
 ExpMin= 1.61D-01 ExpMax= 5.48D+03 ExpMxC= 8.25D+02 IAcc=1 IRadAn=         1 AccDes= 0.00D+00
 HarFok:  IExCor=  205 AccDes= 0.00D+00 IRadAn=         1 IDoV= 1
 ScaDFX=  1.000000  1.000000  1.000000  1.000000
 FoFCou: FMM=F IPFlag=           0 FMFlag=      100000 FMFlg1=           1
         NFxFlg=           0 DoJE=T BraDBF=F KetDBF=T FulRan=T
         Omega=  0.000000  0.000000  1.000000  0.000000  0.000000 ICntrl=     500 IOpCl=  0
         NMat0=    1 NMatS0=    1 NMatT0=    0 NMatD0=    1 NMtDS0=    0 NMtDT0=    0
         I1Cent=           4 NGrid=           0.
 Petite list used in FoFCou.
 Initial guess orbital symmetries:
       Occupied  (A) (A) (A) (A) (A) (A) (A) (A) (A) (A) (A) (A)
                 (A) (A) (A) (A) (A) (A) (A) (A) (A) (A) (A) (A)
                 (A) (A) (A) (A) (A) (A) (A) (A) (A) (A) (A) (A)
                 (A) (A) (A) (A) (A) (A) (A) (A) (A) (A) (A) (A)
                 (A) (A) (A) (A) (A) (A) (A) (A) (A) (A) (A) (A)
                 (A) (A) (A) (A) (A) (A) (A) (A) (A) (A) (A) (A)
                 (A) (A) (A) (A) (A) (A) (A) (A) (A) (A) (A) (A)
                 (A) (A) (A) (A) (A) (A) (A) (A) (A) (A) (A) (A)
                 (A) (A) (A) (A) (A) (A) (A) (A) (A) (A) (A) (A)
       Virtual   (A) (A) (A) (A) (A) (A) (A) (A) (A) (A) (A) (A)
                 (A) (A) (A) (A) (A) (A) (A) (A) (A) (A) (A) (A)
                 (A) (A) (A) (A) (A) (A) (A) (A) (A) (A) (A) (A)
                 (A) (A) (A) (A) (A) (A) (A) (A) (A) (A) (A) (A)
                 (A) (A) (A) (A) (A) (A) (A) (A) (A) (A) (A) (A)
                 (A) (A) (A) (A) (A) (A) (A) (A) (A) (A) (A) (A)
                 (A) (A) (A) (A) (A) (A) (A) (A) (A) (A) (A) (A)
                 (A) (A) (A) (A) (A) (A) (A) (A) (A) (A) (A) (A)
                 (A) (A) (A) (A) (A) (A) (A) (A) (A) (A) (A) (A)
                 (A) (A) (A) (A) (A) (A) (A) (A) (A) (A) (A) (A)
                 (A) (A) (A) (A) (A) (A) (A) (A) (A) (A) (A) (A)
                 (A) (A) (A) (A) (A) (A) (A) (A) (A) (A) (A) (A)
                 (A) (A) (A) (A) (A) (A) (A) (A) (A) (A) (A) (A)
                 (A) (A) (A) (A) (A) (A) (A) (A) (A) (A) (A) (A)
                 (A) (A) (A) (A) (A) (A) (A) (A) (A) (A) (A) (A)
                 (A) (A) (A) (A) (A) (A) (A) (A) (A) (A) (A) (A)
                 (A) (A) (A) (A) (A) (A) (A) (A) (A) (A) (A) (A)
                 (A) (A) (A) (A) (A) (A) (A) (A) (A) (A) (A) (A)
                 (A) (A) (A) (A) (A) (A) (A) (A) (A) (A) (A) (A)
                 (A) (A) (A) (A) (A) (A) (A) (A) (A) (A) (A) (A)
                 (A) (A) (A) (A) (A) (A) (A) (A) (A) (A) (A) (A)
                 (A) (A) (A) (A) (A) (A) (A) (A) (A) (A) (A) (A)
                 (A) (A) (A) (A) (A) (A) (A) (A) (A) (A) (A) (A)
                 (A) (A) (A) (A) (A) (A) (A) (A) (A) (A) (A) (A)
                 (A) (A) (A) (A) (A) (A) (A) (A) (A) (A) (A) (A)
                 (A) (A) (A) (A) (A) (A) (A) (A) (A) (A) (A) (A)
                 (A) (A) (A) (A) (A) (A) (A) (A) (A) (A) (A) (A)
                 (A) (A) (A) (A) (A) (A) (A) (A) (A) (A) (A) (A)
                 (A) (A) (A) (A) (A) (A) (A) (A) (A) (A) (A) (A)
                 (A) (A) (A) (A) (A) (A) (A) (A) (A) (A) (A) (A)
                 (A) (A) (A) (A) (A) (A) (A) (A) (A) (A) (A) (A)
                 (A) (A) (A) (A) (A) (A) (A) (A) (A) (A) (A) (A)
 The electronic state of the initial guess is 1-A.
 Requested convergence on RMS density matrix=1.00D-08 within 128 cycles.
 Requested convergence on MAX density matrix=1.00D-06.
 Requested convergence on             energy=1.00D-06.
 No special actions if energy rises.
 Integral accuracy reduced to 1.0D-05 until final iterations.
 Initial convergence to 1.0D-05 achieved.  Increase integral accuracy.
 SCF Done:  E(RHF) =  -1295.62207663     A.U. after   14 cycles
             Convg  =    0.6085D-08             -V/T =  2.0012

 **********************************************************************

            Population analysis using the SCF density.

 **********************************************************************

 Orbital symmetries:
       Occupied  (A) (A) (A) (A) (A) (A) (A) (A) (A) (A) (A) (A)
                 (A) (A) (A) (A) (A) (A) (A) (A) (A) (A) (A) (A)
                 (A) (A) (A) (A) (A) (A) (A) (A) (A) (A) (A) (A)
                 (A) (A) (A) (A) (A) (A) (A) (A) (A) (A) (A) (A)
                 (A) (A) (A) (A) (A) (A) (A) (A) (A) (A) (A) (A)
                 (A) (A) (A) (A) (A) (A) (A) (A) (A) (A) (A) (A)
                 (A) (A) (A) (A) (A) (A) (A) (A) (A) (A) (A) (A)
                 (A) (A) (A) (A) (A) (A) (A) (A) (A) (A) (A) (A)
                 (A) (A) (A) (A) (A) (A) (A) (A) (A) (A) (A) (A)
       Virtual   (A) (A) (A) (A) (A) (A) (A) (A) (A) (A) (A) (A)
                 (A) (A) (A) (A) (A) (A) (A) (A) (A) (A) (A) (A)
                 (A) (A) (A) (A) (A) (A) (A) (A) (A) (A) (A) (A)
                 (A) (A) (A) (A) (A) (A) (A) (A) (A) (A) (A) (A)
                 (A) (A) (A) (A) (A) (A) (A) (A) (A) (A) (A) (A)
                 (A) (A) (A) (A) (A) (A) (A) (A) (A) (A) (A) (A)
                 (A) (A) (A) (A) (A) (A) (A) (A) (A) (A) (A) (A)
                 (A) (A) (A) (A) (A) (A) (A) (A) (A) (A) (A) (A)
                 (A) (A) (A) (A) (A) (A) (A) (A) (A) (A) (A) (A)
                 (A) (A) (A) (A) (A) (A) (A) (A) (A) (A) (A) (A)
                 (A) (A) (A) (A) (A) (A) (A) (A) (A) (A) (A) (A)
                 (A) (A) (A) (A) (A) (A) (A) (A) (A) (A) (A) (A)
                 (A) (A) (A) (A) (A) (A) (A) (A) (A) (A) (A) (A)
                 (A) (A) (A) (A) (A) (A) (A) (A) (A) (A) (A) (A)
                 (A) (A) (A) (A) (A) (A) (A) (A) (A) (A) (A) (A)
                 (A) (A) (A) (A) (A) (A) (A) (A) (A) (A) (A) (A)
                 (A) (A) (A) (A) (A) (A) (A) (A) (A) (A) (A) (A)
                 (A) (A) (A) (A) (A) (A) (A) (A) (A) (A) (A) (A)
                 (A) (A) (A) (A) (A) (A) (A) (A) (A) (A) (A) (A)
                 (A) (A) (A) (A) (A) (A) (A) (A) (A) (A) (A) (A)
                 (A) (A) (A) (A) (A) (A) (A) (A) (A) (A) (A) (A)
                 (A) (A) (A) (A) (A) (A) (A) (A) (A) (A) (A) (A)
                 (A) (A) (A) (A) (A) (A) (A) (A) (A) (A) (A) (A)
                 (A) (A) (A) (A) (A) (A) (A) (A) (A) (A) (A) (A)
                 (A) (A) (A) (A) (A) (A) (A) (A) (A) (A) (A) (A)
                 (A) (A) (A) (A) (A) (A) (A) (A) (A) (A) (A) (A)
                 (A) (A) (A) (A) (A) (A) (A) (A) (A) (A) (A) (A)
                 (A) (A) (A) (A) (A) (A) (A) (A) (A) (A) (A) (A)
                 (A) (A) (A) (A) (A) (A) (A) (A) (A) (A) (A) (A)
                 (A) (A) (A) (A) (A) (A) (A) (A) (A) (A) (A) (A)
                 (A) (A) (A) (A) (A) (A) (A) (A) (A) (A) (A) (A)
                 (A) (A) (A) (A) (A) (A) (A) (A) (A) (A) (A) (A)
 The electronic state is 1-A.
 Alpha  occ. eigenvalues --  -20.53653 -20.52039 -20.51851 -20.51576 -15.59611
 Alpha  occ. eigenvalues --  -15.57883 -15.57543 -15.57514 -11.35972 -11.34247
 Alpha  occ. eigenvalues --  -11.33863 -11.33663 -11.29027 -11.28557 -11.24960
 Alpha  occ. eigenvalues --  -11.24911 -11.24363 -11.24002 -11.23389 -11.22692
 Alpha  occ. eigenvalues --  -11.22550 -11.22509 -11.22344 -11.22227 -11.22023
 Alpha  occ. eigenvalues --  -11.21798 -11.21594 -11.20854  -1.40590  -1.39355
 Alpha  occ. eigenvalues --   -1.38709  -1.38077  -1.25435  -1.23540  -1.22595
 Alpha  occ. eigenvalues --   -1.22088  -1.10761  -1.09258  -1.07186  -1.04223
 Alpha  occ. eigenvalues --   -1.01231  -0.99322  -0.98732  -0.95528  -0.95124
 Alpha  occ. eigenvalues --   -0.94569  -0.92185  -0.87257  -0.85700  -0.82841
 Alpha  occ. eigenvalues --   -0.81343  -0.79482  -0.78763  -0.77188  -0.76861
 Alpha  occ. eigenvalues --   -0.71897  -0.71291  -0.71102  -0.68942  -0.67980
 Alpha  occ. eigenvalues --   -0.66710  -0.65860  -0.64528  -0.63949  -0.63706
 Alpha  occ. eigenvalues --   -0.62590  -0.62333  -0.61767  -0.61410  -0.61150
 Alpha  occ. eigenvalues --   -0.60919  -0.59900  -0.59337  -0.58713  -0.58425
 Alpha  occ. eigenvalues --   -0.58253  -0.57817  -0.56576  -0.56395  -0.56212
 Alpha  occ. eigenvalues --   -0.55489  -0.54849  -0.54739  -0.54563  -0.53955
 Alpha  occ. eigenvalues --   -0.53084  -0.52814  -0.52468  -0.52148  -0.51544
 Alpha  occ. eigenvalues --   -0.51029  -0.50312  -0.49765  -0.49262  -0.48542
 Alpha  occ. eigenvalues --   -0.48349  -0.46927  -0.46390  -0.44535  -0.42872
 Alpha  occ. eigenvalues --   -0.41943  -0.41491  -0.41054  -0.39289  -0.38824
 Alpha  occ. eigenvalues --   -0.38327  -0.38266  -0.34512
 Alpha virt. eigenvalues --    0.17326   0.18797   0.19665   0.19985   0.20242
 Alpha virt. eigenvalues --    0.21605   0.21980   0.23161   0.23246   0.23942
 Alpha virt. eigenvalues --    0.25298   0.25648   0.26542   0.27120   0.27642
 Alpha virt. eigenvalues --    0.27912   0.28161   0.28832   0.29210   0.29498
 Alpha virt. eigenvalues --    0.29591   0.30190   0.31162   0.31496   0.31650
 Alpha virt. eigenvalues --    0.32018   0.32352   0.32558   0.33291   0.33678
 Alpha virt. eigenvalues --    0.33897   0.34415   0.34696   0.35031   0.35346
 Alpha virt. eigenvalues --    0.35549   0.35830   0.36538   0.37129   0.37407
 Alpha virt. eigenvalues --    0.38281   0.38698   0.39381   0.39552   0.39990
 Alpha virt. eigenvalues --    0.40506   0.41321   0.42060   0.42641   0.43880
 Alpha virt. eigenvalues --    0.44794   0.44943   0.45570   0.45782   0.47071
 Alpha virt. eigenvalues --    0.47328   0.48836   0.49179   0.52229   0.52823
 Alpha virt. eigenvalues --    0.53909   0.55135   0.57765   0.58851   0.59768
 Alpha virt. eigenvalues --    0.62000   0.63313   0.64429   0.68902   0.70144
 Alpha virt. eigenvalues --    0.70924   0.71397   0.71972   0.72625   0.73236
 Alpha virt. eigenvalues --    0.73472   0.74434   0.75102   0.76030   0.76512
 Alpha virt. eigenvalues --    0.76785   0.77215   0.77791   0.78488   0.78976
 Alpha virt. eigenvalues --    0.79661   0.79934   0.80591   0.81193   0.82270
 Alpha virt. eigenvalues --    0.83136   0.84035   0.84861   0.85492   0.86344
 Alpha virt. eigenvalues --    0.87279   0.88169   0.88830   0.90096   0.90567
 Alpha virt. eigenvalues --    0.91528   0.92350   0.92629   0.93036   0.93850
 Alpha virt. eigenvalues --    0.94626   0.95746   0.96869   0.97134   0.97857
 Alpha virt. eigenvalues --    0.98547   0.98898   0.99844   1.00323   1.00491
 Alpha virt. eigenvalues --    1.01517   1.02201   1.02342   1.02941   1.03772
 Alpha virt. eigenvalues --    1.03989   1.04396   1.05567   1.06677   1.06780
 Alpha virt. eigenvalues --    1.07550   1.08194   1.08691   1.10429   1.11026
 Alpha virt. eigenvalues --    1.11952   1.12093   1.13096   1.13519   1.14208
 Alpha virt. eigenvalues --    1.14509   1.14781   1.15061   1.15327   1.15988
 Alpha virt. eigenvalues --    1.16092   1.16586   1.16802   1.17602   1.18076
 Alpha virt. eigenvalues --    1.18282   1.18471   1.18911   1.19131   1.19372
 Alpha virt. eigenvalues --    1.19543   1.19949   1.20574   1.21071   1.21435
 Alpha virt. eigenvalues --    1.21810   1.22132   1.22330   1.22634   1.22724
 Alpha virt. eigenvalues --    1.23253   1.23694   1.24110   1.25296   1.25855
 Alpha virt. eigenvalues --    1.26242   1.26922   1.27439   1.28355   1.29015
 Alpha virt. eigenvalues --    1.29691   1.30507   1.31146   1.31900   1.32642
 Alpha virt. eigenvalues --    1.33369   1.34234   1.35738   1.36242   1.36906
 Alpha virt. eigenvalues --    1.38424   1.38899   1.40590   1.42020   1.42297
 Alpha virt. eigenvalues --    1.43886   1.45320   1.46684   1.47496   1.48486
 Alpha virt. eigenvalues --    1.50776   1.51528   1.53777   1.54382   1.55203
 Alpha virt. eigenvalues --    1.56746   1.58570   1.59487   1.60642   1.61434
 Alpha virt. eigenvalues --    1.61926   1.63791   1.65271   1.66423   1.68324
 Alpha virt. eigenvalues --    1.69442   1.71417   1.71645   1.72410   1.73021
 Alpha virt. eigenvalues --    1.73739   1.74731   1.78259   1.79117   1.79765
 Alpha virt. eigenvalues --    1.80523   1.81363   1.82962   1.86929   1.87934
 Alpha virt. eigenvalues --    1.89623   1.90563   1.91451   1.92990   1.94912
 Alpha virt. eigenvalues --    1.96072   1.96718   1.98536   1.99852   2.01733
 Alpha virt. eigenvalues --    2.04532   2.05675   2.06226   2.07247   2.08162
 Alpha virt. eigenvalues --    2.08544   2.11006   2.11551   2.12109   2.12342
 Alpha virt. eigenvalues --    2.12599   2.13349   2.14384   2.15768   2.16006
 Alpha virt. eigenvalues --    2.16319   2.17966   2.18309   2.19031   2.19221
 Alpha virt. eigenvalues --    2.20307   2.21416   2.21954   2.22971   2.23276
 Alpha virt. eigenvalues --    2.24849   2.25724   2.26146   2.26581   2.27362
 Alpha virt. eigenvalues --    2.28254   2.29327   2.29875   2.31329   2.31507
 Alpha virt. eigenvalues --    2.32859   2.34113   2.34589   2.35349   2.36156
 Alpha virt. eigenvalues --    2.37012   2.37202   2.37841   2.38340   2.39340
 Alpha virt. eigenvalues --    2.39708   2.40931   2.41916   2.43434   2.45105
 Alpha virt. eigenvalues --    2.45673   2.45915   2.47583   2.49192   2.50236
 Alpha virt. eigenvalues --    2.51561   2.52326   2.54486   2.55110   2.55860
 Alpha virt. eigenvalues --    2.56886   2.57194   2.57617   2.59303   2.60435
 Alpha virt. eigenvalues --    2.62507   2.63310   2.64260   2.64524   2.65139
 Alpha virt. eigenvalues --    2.66392   2.68666   2.70068   2.70645   2.71083
 Alpha virt. eigenvalues --    2.72153   2.73395   2.74516   2.75118   2.76299
 Alpha virt. eigenvalues --    2.76648   2.77903   2.78654   2.79374   2.79547
 Alpha virt. eigenvalues --    2.81307   2.82519   2.84028   2.85007   2.86364
 Alpha virt. eigenvalues --    2.87711   2.88444   2.90979   2.91800   2.95838
 Alpha virt. eigenvalues --    2.96631   2.97784   2.98338   2.98797   3.02075
 Alpha virt. eigenvalues --    3.03392   3.04605   3.05512   3.06517   3.06526
 Alpha virt. eigenvalues --    3.11062   3.11330   3.13053   3.13990   3.15657
 Alpha virt. eigenvalues --    3.16807   3.18562   3.22234   3.29599   3.30617
 Alpha virt. eigenvalues --    3.34413   3.34629   3.38752   3.40527   3.41308
 Alpha virt. eigenvalues --    3.42726   3.43002   3.53280   3.55735   3.57605
 Alpha virt. eigenvalues --    3.60144   4.38456   4.40930   4.44716   4.46869
 Alpha virt. eigenvalues --    4.49188   4.51907   4.55162   4.57552   4.61442
 Alpha virt. eigenvalues --    4.63452   4.66486   4.67489   4.68576   4.70145
 Alpha virt. eigenvalues --    4.71358   4.77166   4.79003   4.82883   4.83912
 Alpha virt. eigenvalues --    4.87916   4.89392   4.93778   4.95281   4.98936
 Alpha virt. eigenvalues --    5.02213   5.11995   5.21970   5.23598
          Condensed to atoms (all electrons):
 Mulliken atomic charges:
              1
     1  C   -0.279685
     2  N   -0.783399
     3  C    0.821872
     4  O   -0.628235
     5  C    0.102382
     6  C   -0.472645
     7  C   -0.334317
     8  C   -0.312165
     9  C   -0.373572
    10  C   -0.178862
    11  C   -0.177010
    12  C   -0.353487
    13  C   -0.310566
    14  C   -0.329072
    15  C    0.091049
    16  C   -0.509589
    17  N   -0.787620
    18  C    0.767304
    19  C   -0.595693
    20  O   -0.613868
    21  C    0.820605
    22  O   -0.639306
    23  N   -0.805964
    24  C   -0.275606
    25  N   -0.843066
    26  C    0.744540
    27  C   -0.588668
    28  O   -0.591758
    29  H    0.187037
    30  H    0.198303
    31  H    0.162168
    32  H    0.391300
    33  H    0.198938
    34  H    0.144089
    35  H    0.212495
    36  H    0.161729
    37  H    0.181743
    38  H    0.164449
    39  H    0.180169
    40  H    0.213211
    41  H    0.175279
    42  H    0.180207
    43  H    0.169593
    44  H    0.176866
    45  H    0.160154
    46  H    0.151068
    47  H    0.199588
    48  H    0.173072
    49  H    0.185055
    50  H    0.183459
    51  H    0.148343
    52  H    0.226632
    53  H    0.389775
    54  H    0.211164
    55  H    0.209520
    56  H    0.176243
    57  H    0.395261
    58  H    0.164847
    59  H    0.199878
    60  H    0.184970
    61  H    0.382629
    62  H    0.218612
    63  H    0.177171
    64  H    0.201381
 Sum of Mulliken atomic charges =   0.00000
 Mulliken charges with hydrogens summed into heavy atoms:
              1
     1  C    0.267823
     2  N   -0.392099
     3  C    0.821872
     4  O   -0.628235
     5  C    0.102382
     6  C    0.082878
     7  C    0.009155
     8  C    0.032453
     9  C    0.014918
    10  C    0.001345
    11  C   -0.007416
    12  C   -0.016468
    13  C    0.040090
    14  C    0.029055
    15  C    0.091049
    16  C    0.048846
    17  N   -0.397845
    18  C    0.767304
    19  C    0.001233
    20  O   -0.613868
    21  C    0.820605
    22  O   -0.639306
    23  N   -0.410702
    24  C    0.274087
    25  N   -0.460438
    26  C    0.744540
    27  C    0.008497
    28  O   -0.591758
 Sum of Mulliken charges with hydrogens summed into heavy atoms =   0.00000
 Electronic spatial extent (au):  <R**2>=          22119.8307
 Charge=              0.0000 electrons
 Dipole moment (field-independent basis, Debye):
    X=             -2.7648    Y=             -4.4710    Z=              6.4354  Tot=              8.3096
 Quadrupole moment (field-independent basis, Debye-Ang):
   XX=           -194.6242   YY=           -155.8870   ZZ=           -173.3861
   XY=             13.9787   XZ=            -18.0441   YZ=              9.8693
 Traceless Quadrupole moment (field-independent basis, Debye-Ang):
   XX=            -19.9918   YY=             18.7455   ZZ=              1.2463
   XY=             13.9787   XZ=            -18.0441   YZ=              9.8693
 Octapole moment (field-independent basis, Debye-Ang**2):
  XXX=           -283.2719  YYY=             49.0554  ZZZ=             16.5327  XYY=             58.6930
  XXY=           -237.2048  XXZ=            164.1964  XZZ=            -10.1848  YZZ=             -0.6306
  YYZ=              5.3846  XYZ=              3.1248
 Hexadecapole moment (field-independent basis, Debye-Ang**3):
 XXXX=         -27202.4317 YYYY=          -2277.9248 ZZZZ=          -1302.4429 XXXY=            346.6145
 XXXZ=          -1058.7090 YYYX=             85.2226 YYYZ=              2.7812 ZZZX=            -54.9783
 ZZZY=             20.0970 XXYY=          -4262.3777 XXZZ=          -4349.1370 YYZZ=           -614.4261
 XXYZ=            214.0134 YYXZ=            -79.6335 ZZXY=             27.7585
 N-N= 2.683778563044D+03 E-N=-8.399611998961D+03  KE= 1.294015999663D+03
 1\1\GINC-MOSURA\SP\RHF\6-31G(d)\C20H36N4O4\MARIE\05-Dec-2019\0\\#SP HF
 /6-31G* Geom=(ModRedundant)\\paramfit run\\0,1\C,0,0.,0.,0.\N,0,1.4481
 87,0.,0.\C,0,2.1232,0.47592,1.072365\O,0,1.590179,0.696732,2.124447\C,
 0,3.650505,0.594143,0.921539\C,0,4.198902,1.549248,1.986845\C,0,4.3077
 51,-0.809116,1.023981\C,0,4.120707,-1.629232,2.313189\C,0,2.818849,-2.
 441509,2.461547\C,0,2.577858,-3.426531,1.341756\C,0,2.833586,-4.724745
 ,1.34103\C,0,3.431183,-5.543423,2.460137\C,0,2.40854,-6.382636,3.24721
 4\C,0,1.684582,-7.411327,2.368241\C,0,0.758399,-8.441389,3.065235\C,0,
 0.11506,-9.304982,1.968069\N,0,1.571077,-9.284134,3.93176\C,0,1.004287
 ,-10.188837,4.782242\C,0,1.920989,-10.704412,5.867896\O,0,-0.134528,-1
 0.552363,4.681783\C,0,-0.254051,-7.675028,3.946349\O,0,0.052527,-7.319
 805,5.052584\N,0,-1.436785,-7.339756,3.387142\C,0,-2.450355,-6.666014,
 4.172604\N,0,3.997412,1.070275,-0.425452\C,0,3.587019,2.267163,-0.9340
 86\C,0,4.328148,2.727659,-2.172145\O,0,2.697134,2.905425,-0.447397\H,0
 ,-0.403259,1.006147,0.\H,0,-0.36496,-0.516002,0.875939\H,0,-0.345658,-
 0.522086,-0.883346\H,0,1.904244,0.070913,-0.879357\H,0,3.932135,1.2217
 6,2.980082\H,0,5.28092,1.595925,1.9075\H,0,3.792711,2.540594,1.848395\
 H,0,5.375778,-0.641818,0.903357\H,0,3.993984,-1.399403,0.168767\H,0,4.
 948843,-2.330765,2.353969\H,0,4.227742,-0.986316,3.180701\H,0,1.970552
 ,-1.773267,2.533729\H,0,2.872226,-2.960925,3.411911\H,0,2.143008,-3.00
 8102,0.448483\H,0,2.588706,-5.274972,0.446019\H,0,3.95223,-4.900665,3.
 159305\H,0,4.185195,-6.207133,2.038773\H,0,2.93834,-6.872881,4.059215\
 H,0,1.68997,-5.723184,3.71584\H,0,2.417832,-7.98533,1.805747\H,0,1.081
 024,-6.881363,1.640775\H,0,0.892954,-9.877537,1.476497\H,0,-0.361932,-
 8.689397,1.21248\H,0,-0.605547,-9.997374,2.376797\H,0,2.407781,-8.8652
 74,4.268204\H,0,1.538623,-11.644128,6.236394\H,0,1.928574,-9.987592,6.
 683516\H,0,2.938606,-10.833777,5.515612\H,0,-1.741738,-7.84385,2.58826
 6\H,0,-3.262536,-6.380693,3.516955\H,0,-2.032296,-5.77769,4.622862\H,0
 ,-2.836138,-7.301906,4.962899\H,0,4.82812,0.684785,-0.816437\H,0,3.710
 173,3.434604,-2.706288\H,0,4.588171,1.902533,-2.825678\H,0,5.244771,3.
 226201,-1.873716\\Version=EM64L-G09RevA.02\State=1-A\HF=-1295.6220766\
 RMSD=6.085e-09\Dipole=1.9884257,-0.338275,-2.5728714\Quadrupole=17.074
 0607,-25.5810466,8.5069858,3.8050798,2.7869427,-4.2945534\PG=C01 [X(C2
 0H36N4O4)]\\@


 THOSE WHO TRY TO PASS CHEMISTRY OFF AS A NEW SCIENCE
 SHOW HOW LITTLE KNOWLEDGE THEY HAVE OF THE CHARACTER
 AND LITERATURE OF THE ANCIENTS.
   -- NICOLAS LEFEVRE
 "COURS DE CHYMIE" J.-N.LELOUP, PARIS, 1751
 Job cpu time:  0 days  0 hours  5 minutes 12.2 seconds.
 File lengths (MBytes):  RWF=    132 Int=      0 D2E=      0 Chk=     10 Scr=      1
 Normal termination of Gaussian 09 at Thu Dec  5 15:59:38 2019.
