 Entering Gaussian System, Link 0=g09
 Input=CHI1_-160.gau
 Output=CHI1_-160.log
 Initial command:
 /home/marie/Utilities//g09/l1.exe /tmp/g09/Gau-2911.inp -scrdir=/tmp/g09/
 Entering Link 1 = /home/marie/Utilities//g09/l1.exe PID=      2914.
  
 Copyright (c) 1988,1990,1992,1993,1995,1998,2003,2009, Gaussian, Inc.
                  All Rights Reserved.
  
 This is part of the Gaussian(R) 09 program.  It is based on
 the Gaussian(R) 03 system (copyright 2003, Gaussian, Inc.),
 the Gaussian(R) 98 system (copyright 1998, Gaussian, Inc.),
 the Gaussian(R) 94 system (copyright 1995, Gaussian, Inc.),
 the Gaussian 92(TM) system (copyright 1992, Gaussian, Inc.),
 the Gaussian 90(TM) system (copyright 1990, Gaussian, Inc.),
 the Gaussian 88(TM) system (copyright 1988, Gaussian, Inc.),
 the Gaussian 86(TM) system (copyright 1986, Carnegie Mellon
 University), and the Gaussian 82(TM) system (copyright 1983,
 Carnegie Mellon University). Gaussian is a federally registered
 trademark of Gaussian, Inc.
  
 This software contains proprietary and confidential information,
 including trade secrets, belonging to Gaussian, Inc.
  
 This software is provided under written license and may be
 used, copied, transmitted, or stored only in accord with that
 written license.
  
 The following legend is applicable only to US Government
 contracts under FAR:
  
                    RESTRICTED RIGHTS LEGEND
  
 Use, reproduction and disclosure by the US Government is
 subject to restrictions as set forth in subparagraphs (a)
 and (c) of the Commercial Computer Software - Restricted
 Rights clause in FAR 52.227-19.
  
 Gaussian, Inc.
 340 Quinnipiac St., Bldg. 40, Wallingford CT 06492
  
  
 ---------------------------------------------------------------
 Warning -- This program may not be used in any manner that
 competes with the business of Gaussian, Inc. or will provide
 assistance to any competitor of Gaussian, Inc.  The licensee
 of this program is prohibited from giving any competitor of
 Gaussian, Inc. access to this program.  By using this program,
 the user acknowledges that Gaussian, Inc. is engaged in the
 business of creating and licensing software in the field of
 computational chemistry and represents and warrants to the
 licensee that it is not a competitor of Gaussian, Inc. and that
 it will not use this program in any manner prohibited above.
 ---------------------------------------------------------------
  

 Cite this work as:
 Gaussian 09, Revision A.02,
 M. J. Frisch, G. W. Trucks, H. B. Schlegel, G. E. Scuseria, 
 M. A. Robb, J. R. Cheeseman, G. Scalmani, V. Barone, B. Mennucci, 
 G. A. Petersson, H. Nakatsuji, M. Caricato, X. Li, H. P. Hratchian, 
 A. F. Izmaylov, J. Bloino, G. Zheng, J. L. Sonnenberg, M. Hada, 
 M. Ehara, K. Toyota, R. Fukuda, J. Hasegawa, M. Ishida, T. Nakajima, 
 Y. Honda, O. Kitao, H. Nakai, T. Vreven, J. A. Montgomery, Jr., 
 J. E. Peralta, F. Ogliaro, M. Bearpark, J. J. Heyd, E. Brothers, 
 K. N. Kudin, V. N. Staroverov, R. Kobayashi, J. Normand, 
 K. Raghavachari, A. Rendell, J. C. Burant, S. S. Iyengar, J. Tomasi, 
 M. Cossi, N. Rega, J. M. Millam, M. Klene, J. E. Knox, J. B. Cross, 
 V. Bakken, C. Adamo, J. Jaramillo, R. Gomperts, R. E. Stratmann, 
 O. Yazyev, A. J. Austin, R. Cammi, C. Pomelli, J. W. Ochterski, 
 R. L. Martin, K. Morokuma, V. G. Zakrzewski, G. A. Voth, 
 P. Salvador, J. J. Dannenberg, S. Dapprich, A. D. Daniels, 
 O. Farkas, J. B. Foresman, J. V. Ortiz, J. Cioslowski, 
 and D. J. Fox, Gaussian, Inc., Wallingford CT, 2009.
 
 ******************************************
 Gaussian 09:  EM64L-G09RevA.02 11-Jun-2009
                 5-Dec-2019 
 ******************************************
 %chk=CHI1_-160
 %NoSave
 ---------------------------------
 #SP HF/6-31G* Geom=(ModRedundant)
 ---------------------------------
 1/18=120,38=1/1;
 2/12=2,17=6,18=5,40=1/2;
 3/5=1,6=6,7=1,11=9,16=1,25=1,30=1/1,2,3;
 4//1;
 5/5=2,38=5/2;
 6/7=2,8=2,9=2,10=2,28=1/1;
 99/5=1,9=1/99;
 ------------
 paramfit run
 ------------
 Symbolic Z-matrix:
 Charge =  0 Multiplicity = 1
 C-CT--0.3208          0.        0.        0. 
 N-N--0.5622           1.44819   0.        0. 
 C-C-0.8053            2.1232    0.47592   1.07237 
 O-O--0.6151           1.59018   0.69673   2.12445 
 C-CX-0.0839           3.65051   0.59414   0.92154 
 C-CU--0.3230          4.1989    1.54925   1.98685 
 C-CU--0.0657          4.30775  -0.80912   1.02398 
 C-CU--0.0109          5.80523  -0.90938   1.36621 
 C-CU-0.0816           6.20632  -0.82638   2.85245 
 C-CM--0.2354          5.54245  -1.86386   3.7272 
 C-CM--0.2653          6.0495   -3.01417   4.14005 
 C-CU-0.1214           7.41818  -3.57546   3.83772 
 C-CU--0.0354          8.42914  -3.43553   4.99009 
 C-CU--0.0984          7.98656  -4.17559   6.25948 
 C-CU-0.1300           8.99119  -4.26622   7.43725 
 C-CU--0.3561          8.28687  -4.99384   8.59395 
 N-N--0.7186           10.14394  -5.04451   7.00485 
 C-C-0.8537            11.25521  -5.1682    7.78769 
 C-CT--0.3868          12.48835  -5.66722   7.06995 
 O-O--0.6323           11.26042  -4.90315   8.95768 
 C-C-0.7903            9.47293  -2.83907   7.78351 
 O-O--0.6136           10.36846  -2.33418   7.16138 
 N-N--0.5650           8.78501  -2.16224   8.72831 
 C-CT--0.3231          9.21401  -0.84037   9.13673 
 N-N--0.7191           3.99741   1.07028  -0.42545 
 C-C-0.8539            3.58702   2.26716  -0.93409 
 C-CT--0.3903          4.32815   2.72766  -2.17214 
 O-O--0.6290           2.69713   2.90543  -0.4474 
 H-H1-0.1459          -0.40326   1.00615   0. 
 H-H1-0.1459          -0.36496  -0.516     0.87594 
 H-H1-0.1459          -0.34566  -0.52209  -0.88335 
 H-H-0.3572            1.90424   0.07091  -0.87936 
 H-HC-0.0997           3.93214   1.22176   2.98008 
 H-HC-0.0997           5.28092   1.59593   1.9075 
 H-HC-0.0997           3.79271   2.54059   1.8484 
 H-HC-0.0347           4.1713   -1.26845   0.04745 
 H-HC-0.0347           3.7338   -1.4077    1.72439 
 H-HC-0.0243           6.14246  -1.87121   0.991 
 H-HC-0.0243           6.36276  -0.15902   0.81532 
 H-HC-0.0171           5.98536   0.15887   3.2421 
 H-HC-0.0171           7.28452  -0.93175   2.89935 
 H-HA-0.1313           4.54173  -1.62192   4.0468 
 H-HA-0.1359           5.42597  -3.63052   4.76862 
 H-HC-0.0092           7.83559  -3.09633   2.96041 
 H-HC-0.0092           7.31177  -4.62982   3.58552 
 H-HC-0.0318           9.38591  -3.81079   4.63776 
 H-HC-0.0318           8.58208  -2.38633   5.20602 
 H-HC-0.0435           7.71474  -5.19784   6.0052 
 H-HC-0.0435           7.08984  -3.70195   6.64145 
 H-HC-0.1066           8.08156  -6.01329   8.28875 
 H-HC-0.1066           7.33596  -4.52779   8.8305 
 H-HC-0.1066           8.90342  -5.02512   9.47974 
 H-H-0.3529            10.32417  -5.02906   6.02711 
 H-HC-0.1047           13.1751  -6.08031   7.79299 
 H-HC-0.1047           12.96599  -4.82576   6.57706 
 H-HC-0.1047           12.25019  -6.41378   6.32007 
 H-H-0.3615            8.23028  -2.67818   9.36971 
 H-H1-0.1469           8.46984  -0.42659   9.80449 
 H-H1-0.1469           9.30373  -0.20197   8.27012 
 H-H1-0.1469           10.17318  -0.86701   9.64372 
 H-H-0.3570            4.82812   0.68479  -0.81644 
 H-HC-0.1060           3.71017   3.4346   -2.70629 
 H-HC-0.1060           4.58817   1.90253  -2.82568 
 H-HC-0.1060           5.24477   3.2262   -1.87372 
 
 The following ModRedundant input section has been read:
 D    *    5    7    * F                                                       
 Stoichiometry    C20H36N4O4
 Framework group  C1[X(C20H36N4O4)]
 Deg. of freedom   186
 Full point group                 C1      NOp   1
 Largest Abelian subgroup         C1      NOp   1
 Largest concise Abelian subgroup C1      NOp   1
                         Standard orientation:                         
 ---------------------------------------------------------------------
 Center     Atomic      Atomic             Coordinates (Angstroms)
 Number     Number       Type             X           Y           Z
 ---------------------------------------------------------------------
      1          6    20001001       -7.199539   -2.412888   -1.196529
      2          7    20001014       -6.312326   -1.277278   -1.053388
      3          6    20001002       -5.407512   -1.250212   -0.047064
      4          8    20001024       -5.143092   -2.219259    0.609271
      5          6    90000001       -4.622921    0.061958    0.131855
      6          6    90000002       -4.012497    0.107340    1.536549
      7          6    90000002       -3.531793    0.186053   -0.966163
      8          6    90000002       -2.345934    1.140278   -0.736324
      9          6    90000002       -1.164001    0.622061    0.106959
     10          6    20001004       -0.538615   -0.646072   -0.425026
     11          6    20001004        0.551691   -0.757844   -1.166307
     12          6    90000002        1.440835    0.355809   -1.665262
     13          6    90000002        2.752621    0.520802   -0.876872
     14          6    90000002        3.640220   -0.729657   -0.935475
     15          6    90000002        5.066862   -0.638830   -0.334571
     16          6    90000002        5.714823   -2.026960   -0.463776
     17          7    20001014        5.834661    0.328665   -1.106563
     18          6    20001002        7.082729    0.721786   -0.718183
     19          6    20001001        7.589302    1.982154   -1.381251
     20          8    20001024        7.734484    0.117657    0.087661
     21          6    20001002        4.956684   -0.121457    1.117638
     22          8    20001024        4.874451    1.057236    1.336387
     23          7    20001014        4.854036   -1.042379    2.100158
     24          6    20001001        4.798862   -0.626964    3.486732
     25          7    20001014       -5.503056    1.219359   -0.085438
     26          6    20001002       -6.617480    1.472895    0.658504
     27          6    20001001       -7.177863    2.873248    0.520298
     28          8    20001024       -7.126687    0.647205    1.362126
     29          1    20001035       -7.892146   -2.490675   -0.366352
     30          1    20001035       -6.621185   -3.323731   -1.247459
     31          1    20001035       -7.758392   -2.301035   -2.117141
     32          1    20001029       -6.640008   -0.398514   -1.380015
     33          1    20001034       -3.380677   -0.749105    1.716098
     34          1    20001034       -3.422227    1.012383    1.644787
     35          1    20001034       -4.790983    0.103151    2.285460
     36          1    20001034       -4.051275    0.530274   -1.857718
     37          1    20001034       -3.159818   -0.807565   -1.195597
     38          1    20001034       -1.959041    1.391978   -1.719473
     39          1    20001034       -2.697307    2.071243   -0.303643
     40          1    20001034       -1.480576    0.458796    1.128962
     41          1    20001034       -0.426084    1.415677    0.145511
     42          1    20001033       -1.049601   -1.556761   -0.157349
     43          1    20001033        0.854130   -1.753346   -1.451377
     44          1    20001034        0.910044    1.299828   -1.641708
     45          1    20001034        1.677447    0.167154   -2.711693
     46          1    20001034        3.274302    1.384208   -1.280299
     47          1    20001034        2.523060    0.765529    0.151835
     48          1    20001034        3.759913   -1.039216   -1.971517
     49          1    20001034        3.131166   -1.539658   -0.426444
     50          1    20001034        5.840687   -2.254493   -1.515901
     51          1    20001034        5.080736   -2.797851   -0.038282
     52          1    20001034        6.686284   -2.058921    0.006310
     53          1    20001029        5.298150    1.034425   -1.556864
     54          1    20001034        8.666305    2.008099   -1.314529
     55          1    20001034        7.186627    2.838790   -0.849129
     56          1    20001034        7.283088    2.048566   -2.419618
     57          1    20001029        5.162557   -1.967502    1.915031
     58          1    20001035        4.596867   -1.495441    4.099813
     59          1    20001035        4.003784    0.091700    3.620890
     60          1    20001035        5.730185   -0.171911    3.808162
     61          1    20001029       -5.079386    2.003657   -0.529204
     62          1    20001034       -8.219196    2.862533    0.807497
     63          1    20001034       -7.081009    3.256434   -0.489325
     64          1    20001034       -6.641709    3.539011    1.188954
 ---------------------------------------------------------------------
 Rotational constants (GHZ):      0.3996382      0.0437212      0.0435264
 Standard basis: 6-31G(d) (6D, 7F)
 There are   492 symmetry adapted basis functions of A   symmetry.
 Integral buffers will be    131072 words long.
 Raffenetti 1 integral format.
 Two-electron integral symmetry is turned on.
   492 basis functions,   928 primitive gaussians,   492 cartesian basis functions
   108 alpha electrons      108 beta electrons
       nuclear repulsion energy      2637.6464512921 Hartrees.
 NAtoms=   64 NActive=   64 NUniq=   64 SFac= 7.50D-01 NAtFMM=   80 NAOKFM=F Big=T
 One-electron integrals computed using PRISM.
 NBasis=   492 RedAO= T  NBF=   492
 NBsUse=   492 1.00D-06 NBFU=   492
 Harris functional with IExCor=  205 diagonalized for initial guess.
 ExpMin= 1.61D-01 ExpMax= 5.48D+03 ExpMxC= 8.25D+02 IAcc=1 IRadAn=         1 AccDes= 0.00D+00
 HarFok:  IExCor=  205 AccDes= 0.00D+00 IRadAn=         1 IDoV= 1
 ScaDFX=  1.000000  1.000000  1.000000  1.000000
 FoFCou: FMM=F IPFlag=           0 FMFlag=      100000 FMFlg1=           1
         NFxFlg=           0 DoJE=T BraDBF=F KetDBF=T FulRan=T
         Omega=  0.000000  0.000000  1.000000  0.000000  0.000000 ICntrl=     500 IOpCl=  0
         NMat0=    1 NMatS0=    1 NMatT0=    0 NMatD0=    1 NMtDS0=    0 NMtDT0=    0
         I1Cent=           4 NGrid=           0.
 Petite list used in FoFCou.
 Initial guess orbital symmetries:
       Occupied  (A) (A) (A) (A) (A) (A) (A) (A) (A) (A) (A) (A)
                 (A) (A) (A) (A) (A) (A) (A) (A) (A) (A) (A) (A)
                 (A) (A) (A) (A) (A) (A) (A) (A) (A) (A) (A) (A)
                 (A) (A) (A) (A) (A) (A) (A) (A) (A) (A) (A) (A)
                 (A) (A) (A) (A) (A) (A) (A) (A) (A) (A) (A) (A)
                 (A) (A) (A) (A) (A) (A) (A) (A) (A) (A) (A) (A)
                 (A) (A) (A) (A) (A) (A) (A) (A) (A) (A) (A) (A)
                 (A) (A) (A) (A) (A) (A) (A) (A) (A) (A) (A) (A)
                 (A) (A) (A) (A) (A) (A) (A) (A) (A) (A) (A) (A)
       Virtual   (A) (A) (A) (A) (A) (A) (A) (A) (A) (A) (A) (A)
                 (A) (A) (A) (A) (A) (A) (A) (A) (A) (A) (A) (A)
                 (A) (A) (A) (A) (A) (A) (A) (A) (A) (A) (A) (A)
                 (A) (A) (A) (A) (A) (A) (A) (A) (A) (A) (A) (A)
                 (A) (A) (A) (A) (A) (A) (A) (A) (A) (A) (A) (A)
                 (A) (A) (A) (A) (A) (A) (A) (A) (A) (A) (A) (A)
                 (A) (A) (A) (A) (A) (A) (A) (A) (A) (A) (A) (A)
                 (A) (A) (A) (A) (A) (A) (A) (A) (A) (A) (A) (A)
                 (A) (A) (A) (A) (A) (A) (A) (A) (A) (A) (A) (A)
                 (A) (A) (A) (A) (A) (A) (A) (A) (A) (A) (A) (A)
                 (A) (A) (A) (A) (A) (A) (A) (A) (A) (A) (A) (A)
                 (A) (A) (A) (A) (A) (A) (A) (A) (A) (A) (A) (A)
                 (A) (A) (A) (A) (A) (A) (A) (A) (A) (A) (A) (A)
                 (A) (A) (A) (A) (A) (A) (A) (A) (A) (A) (A) (A)
                 (A) (A) (A) (A) (A) (A) (A) (A) (A) (A) (A) (A)
                 (A) (A) (A) (A) (A) (A) (A) (A) (A) (A) (A) (A)
                 (A) (A) (A) (A) (A) (A) (A) (A) (A) (A) (A) (A)
                 (A) (A) (A) (A) (A) (A) (A) (A) (A) (A) (A) (A)
                 (A) (A) (A) (A) (A) (A) (A) (A) (A) (A) (A) (A)
                 (A) (A) (A) (A) (A) (A) (A) (A) (A) (A) (A) (A)
                 (A) (A) (A) (A) (A) (A) (A) (A) (A) (A) (A) (A)
                 (A) (A) (A) (A) (A) (A) (A) (A) (A) (A) (A) (A)
                 (A) (A) (A) (A) (A) (A) (A) (A) (A) (A) (A) (A)
                 (A) (A) (A) (A) (A) (A) (A) (A) (A) (A) (A) (A)
                 (A) (A) (A) (A) (A) (A) (A) (A) (A) (A) (A) (A)
                 (A) (A) (A) (A) (A) (A) (A) (A) (A) (A) (A) (A)
                 (A) (A) (A) (A) (A) (A) (A) (A) (A) (A) (A) (A)
                 (A) (A) (A) (A) (A) (A) (A) (A) (A) (A) (A) (A)
                 (A) (A) (A) (A) (A) (A) (A) (A) (A) (A) (A) (A)
                 (A) (A) (A) (A) (A) (A) (A) (A) (A) (A) (A) (A)
                 (A) (A) (A) (A) (A) (A) (A) (A) (A) (A) (A) (A)
                 (A) (A) (A) (A) (A) (A) (A) (A) (A) (A) (A) (A)
 The electronic state of the initial guess is 1-A.
 Requested convergence on RMS density matrix=1.00D-08 within 128 cycles.
 Requested convergence on MAX density matrix=1.00D-06.
 Requested convergence on             energy=1.00D-06.
 No special actions if energy rises.
 Integral accuracy reduced to 1.0D-05 until final iterations.
 Initial convergence to 1.0D-05 achieved.  Increase integral accuracy.
 SCF Done:  E(RHF) =  -1295.61585371     A.U. after   14 cycles
             Convg  =    0.6367D-08             -V/T =  2.0012

 **********************************************************************

            Population analysis using the SCF density.

 **********************************************************************

 Orbital symmetries:
       Occupied  (A) (A) (A) (A) (A) (A) (A) (A) (A) (A) (A) (A)
                 (A) (A) (A) (A) (A) (A) (A) (A) (A) (A) (A) (A)
                 (A) (A) (A) (A) (A) (A) (A) (A) (A) (A) (A) (A)
                 (A) (A) (A) (A) (A) (A) (A) (A) (A) (A) (A) (A)
                 (A) (A) (A) (A) (A) (A) (A) (A) (A) (A) (A) (A)
                 (A) (A) (A) (A) (A) (A) (A) (A) (A) (A) (A) (A)
                 (A) (A) (A) (A) (A) (A) (A) (A) (A) (A) (A) (A)
                 (A) (A) (A) (A) (A) (A) (A) (A) (A) (A) (A) (A)
                 (A) (A) (A) (A) (A) (A) (A) (A) (A) (A) (A) (A)
       Virtual   (A) (A) (A) (A) (A) (A) (A) (A) (A) (A) (A) (A)
                 (A) (A) (A) (A) (A) (A) (A) (A) (A) (A) (A) (A)
                 (A) (A) (A) (A) (A) (A) (A) (A) (A) (A) (A) (A)
                 (A) (A) (A) (A) (A) (A) (A) (A) (A) (A) (A) (A)
                 (A) (A) (A) (A) (A) (A) (A) (A) (A) (A) (A) (A)
                 (A) (A) (A) (A) (A) (A) (A) (A) (A) (A) (A) (A)
                 (A) (A) (A) (A) (A) (A) (A) (A) (A) (A) (A) (A)
                 (A) (A) (A) (A) (A) (A) (A) (A) (A) (A) (A) (A)
                 (A) (A) (A) (A) (A) (A) (A) (A) (A) (A) (A) (A)
                 (A) (A) (A) (A) (A) (A) (A) (A) (A) (A) (A) (A)
                 (A) (A) (A) (A) (A) (A) (A) (A) (A) (A) (A) (A)
                 (A) (A) (A) (A) (A) (A) (A) (A) (A) (A) (A) (A)
                 (A) (A) (A) (A) (A) (A) (A) (A) (A) (A) (A) (A)
                 (A) (A) (A) (A) (A) (A) (A) (A) (A) (A) (A) (A)
                 (A) (A) (A) (A) (A) (A) (A) (A) (A) (A) (A) (A)
                 (A) (A) (A) (A) (A) (A) (A) (A) (A) (A) (A) (A)
                 (A) (A) (A) (A) (A) (A) (A) (A) (A) (A) (A) (A)
                 (A) (A) (A) (A) (A) (A) (A) (A) (A) (A) (A) (A)
                 (A) (A) (A) (A) (A) (A) (A) (A) (A) (A) (A) (A)
                 (A) (A) (A) (A) (A) (A) (A) (A) (A) (A) (A) (A)
                 (A) (A) (A) (A) (A) (A) (A) (A) (A) (A) (A) (A)
                 (A) (A) (A) (A) (A) (A) (A) (A) (A) (A) (A) (A)
                 (A) (A) (A) (A) (A) (A) (A) (A) (A) (A) (A) (A)
                 (A) (A) (A) (A) (A) (A) (A) (A) (A) (A) (A) (A)
                 (A) (A) (A) (A) (A) (A) (A) (A) (A) (A) (A) (A)
                 (A) (A) (A) (A) (A) (A) (A) (A) (A) (A) (A) (A)
                 (A) (A) (A) (A) (A) (A) (A) (A) (A) (A) (A) (A)
                 (A) (A) (A) (A) (A) (A) (A) (A) (A) (A) (A) (A)
                 (A) (A) (A) (A) (A) (A) (A) (A) (A) (A) (A) (A)
                 (A) (A) (A) (A) (A) (A) (A) (A) (A) (A) (A) (A)
                 (A) (A) (A) (A) (A) (A) (A) (A) (A) (A) (A) (A)
                 (A) (A) (A) (A) (A) (A) (A) (A) (A) (A) (A) (A)
 The electronic state is 1-A.
 Alpha  occ. eigenvalues --  -20.53526 -20.52211 -20.51809 -20.51548 -15.59423
 Alpha  occ. eigenvalues --  -15.58080 -15.57704 -15.57154 -11.35802 -11.34422
 Alpha  occ. eigenvalues --  -11.33883 -11.33608 -11.28897 -11.28753 -11.25169
 Alpha  occ. eigenvalues --  -11.24589 -11.24248 -11.23848 -11.23785 -11.23632
 Alpha  occ. eigenvalues --  -11.22988 -11.22821 -11.22771 -11.22724 -11.22686
 Alpha  occ. eigenvalues --  -11.22585 -11.21917 -11.20763  -1.40443  -1.39555
 Alpha  occ. eigenvalues --   -1.38344  -1.38282  -1.25309  -1.23732  -1.22796
 Alpha  occ. eigenvalues --   -1.21732  -1.11324  -1.09551  -1.07368  -1.04518
 Alpha  occ. eigenvalues --   -1.01406  -0.99460  -0.98939  -0.95766  -0.95206
 Alpha  occ. eigenvalues --   -0.94817  -0.92634  -0.87337  -0.85794  -0.82670
 Alpha  occ. eigenvalues --   -0.80902  -0.80396  -0.79644  -0.77056  -0.76804
 Alpha  occ. eigenvalues --   -0.72416  -0.71516  -0.70683  -0.69231  -0.68292
 Alpha  occ. eigenvalues --   -0.67226  -0.65641  -0.64720  -0.63955  -0.63445
 Alpha  occ. eigenvalues --   -0.62405  -0.62305  -0.62108  -0.61655  -0.61508
 Alpha  occ. eigenvalues --   -0.61187  -0.60283  -0.59480  -0.59102  -0.58835
 Alpha  occ. eigenvalues --   -0.58022  -0.57560  -0.56612  -0.56260  -0.56194
 Alpha  occ. eigenvalues --   -0.55667  -0.55179  -0.54921  -0.54545  -0.54143
 Alpha  occ. eigenvalues --   -0.53422  -0.53238  -0.52480  -0.52381  -0.52080
 Alpha  occ. eigenvalues --   -0.51421  -0.50541  -0.49995  -0.49357  -0.48861
 Alpha  occ. eigenvalues --   -0.48393  -0.47187  -0.46687  -0.45155  -0.42890
 Alpha  occ. eigenvalues --   -0.41868  -0.41704  -0.41231  -0.39023  -0.38950
 Alpha  occ. eigenvalues --   -0.38478  -0.37984  -0.35067
 Alpha virt. eigenvalues --    0.16628   0.18870   0.19470   0.19773   0.21255
 Alpha virt. eigenvalues --    0.21431   0.21834   0.22818   0.23358   0.24031
 Alpha virt. eigenvalues --    0.25127   0.25702   0.26103   0.26326   0.27228
 Alpha virt. eigenvalues --    0.27469   0.27932   0.28584   0.28702   0.29325
 Alpha virt. eigenvalues --    0.29498   0.30178   0.30992   0.31266   0.31581
 Alpha virt. eigenvalues --    0.32032   0.32402   0.32509   0.32994   0.33482
 Alpha virt. eigenvalues --    0.33991   0.34168   0.34446   0.34718   0.35123
 Alpha virt. eigenvalues --    0.35261   0.35675   0.36068   0.36498   0.36642
 Alpha virt. eigenvalues --    0.37651   0.38193   0.38983   0.39524   0.39929
 Alpha virt. eigenvalues --    0.40165   0.40626   0.42157   0.42620   0.43781
 Alpha virt. eigenvalues --    0.44517   0.45195   0.45531   0.46560   0.47185
 Alpha virt. eigenvalues --    0.47759   0.48948   0.49953   0.52079   0.52394
 Alpha virt. eigenvalues --    0.53112   0.55589   0.57588   0.58152   0.59493
 Alpha virt. eigenvalues --    0.62206   0.63554   0.64351   0.68416   0.69932
 Alpha virt. eigenvalues --    0.71218   0.71431   0.71848   0.72546   0.73286
 Alpha virt. eigenvalues --    0.73896   0.74646   0.75355   0.75643   0.76026
 Alpha virt. eigenvalues --    0.76486   0.76756   0.77660   0.78207   0.78485
 Alpha virt. eigenvalues --    0.78780   0.79584   0.80639   0.82217   0.83048
 Alpha virt. eigenvalues --    0.83533   0.83912   0.84664   0.85305   0.87049
 Alpha virt. eigenvalues --    0.87453   0.87961   0.88357   0.89708   0.90661
 Alpha virt. eigenvalues --    0.91133   0.91815   0.92171   0.92407   0.93680
 Alpha virt. eigenvalues --    0.93970   0.94480   0.96474   0.96882   0.97189
 Alpha virt. eigenvalues --    0.98013   0.98522   0.99496   1.00127   1.00682
 Alpha virt. eigenvalues --    1.01433   1.01855   1.02150   1.02633   1.03246
 Alpha virt. eigenvalues --    1.03872   1.04747   1.05025   1.06848   1.07360
 Alpha virt. eigenvalues --    1.07394   1.08052   1.08899   1.10148   1.10362
 Alpha virt. eigenvalues --    1.12448   1.12692   1.13141   1.13546   1.14191
 Alpha virt. eigenvalues --    1.14257   1.14532   1.14787   1.15184   1.15487
 Alpha virt. eigenvalues --    1.15789   1.16052   1.16132   1.17009   1.17353
 Alpha virt. eigenvalues --    1.17616   1.18148   1.18550   1.18690   1.19119
 Alpha virt. eigenvalues --    1.19394   1.20413   1.20442   1.20670   1.21252
 Alpha virt. eigenvalues --    1.21667   1.21737   1.22194   1.22564   1.22882
 Alpha virt. eigenvalues --    1.23412   1.23619   1.23903   1.25096   1.25518
 Alpha virt. eigenvalues --    1.25708   1.26721   1.27537   1.28133   1.28614
 Alpha virt. eigenvalues --    1.29493   1.29869   1.30279   1.31086   1.31892
 Alpha virt. eigenvalues --    1.32112   1.33937   1.35486   1.36153   1.37620
 Alpha virt. eigenvalues --    1.38557   1.39622   1.39846   1.40391   1.41703
 Alpha virt. eigenvalues --    1.41903   1.44828   1.45976   1.47275   1.48297
 Alpha virt. eigenvalues --    1.49974   1.50810   1.53677   1.54050   1.55000
 Alpha virt. eigenvalues --    1.56160   1.57420   1.58761   1.60793   1.61439
 Alpha virt. eigenvalues --    1.61951   1.62209   1.63685   1.66111   1.68637
 Alpha virt. eigenvalues --    1.69848   1.70860   1.71551   1.72753   1.73007
 Alpha virt. eigenvalues --    1.73989   1.75223   1.76356   1.78405   1.79990
 Alpha virt. eigenvalues --    1.80322   1.81159   1.82697   1.86593   1.88457
 Alpha virt. eigenvalues --    1.89335   1.91023   1.91284   1.92947   1.93317
 Alpha virt. eigenvalues --    1.95753   1.96944   1.98323   2.00164   2.03513
 Alpha virt. eigenvalues --    2.04232   2.05196   2.06427   2.06599   2.07526
 Alpha virt. eigenvalues --    2.08093   2.09606   2.10883   2.11663   2.12017
 Alpha virt. eigenvalues --    2.13071   2.14072   2.14337   2.15009   2.16100
 Alpha virt. eigenvalues --    2.16259   2.17276   2.17824   2.19332   2.19606
 Alpha virt. eigenvalues --    2.20748   2.20991   2.22293   2.22729   2.24265
 Alpha virt. eigenvalues --    2.24620   2.25249   2.25546   2.26414   2.27084
 Alpha virt. eigenvalues --    2.27930   2.29064   2.30413   2.31414   2.31694
 Alpha virt. eigenvalues --    2.32629   2.32883   2.34027   2.35067   2.35341
 Alpha virt. eigenvalues --    2.36399   2.36774   2.37068   2.38550   2.39017
 Alpha virt. eigenvalues --    2.39294   2.40866   2.41665   2.41909   2.43363
 Alpha virt. eigenvalues --    2.43865   2.46453   2.47270   2.49671   2.49765
 Alpha virt. eigenvalues --    2.52174   2.53270   2.53910   2.55507   2.55703
 Alpha virt. eigenvalues --    2.56713   2.57254   2.57725   2.59454   2.60012
 Alpha virt. eigenvalues --    2.61663   2.63060   2.64296   2.64678   2.65131
 Alpha virt. eigenvalues --    2.66820   2.68967   2.70004   2.71379   2.71957
 Alpha virt. eigenvalues --    2.72327   2.73505   2.74142   2.74653   2.75779
 Alpha virt. eigenvalues --    2.77106   2.77608   2.78839   2.79155   2.79953
 Alpha virt. eigenvalues --    2.81029   2.82453   2.83582   2.85429   2.86149
 Alpha virt. eigenvalues --    2.86441   2.87895   2.90581   2.91604   2.95551
 Alpha virt. eigenvalues --    2.95707   2.97019   2.98235   2.98973   3.02019
 Alpha virt. eigenvalues --    3.03103   3.05186   3.05329   3.05989   3.08725
 Alpha virt. eigenvalues --    3.10262   3.10846   3.12775   3.13183   3.15288
 Alpha virt. eigenvalues --    3.15575   3.18009   3.21270   3.28537   3.30403
 Alpha virt. eigenvalues --    3.34214   3.34389   3.38398   3.40187   3.40702
 Alpha virt. eigenvalues --    3.42370   3.42508   3.53351   3.55526   3.57411
 Alpha virt. eigenvalues --    3.60166   4.38261   4.40402   4.44464   4.47300
 Alpha virt. eigenvalues --    4.48990   4.51713   4.54164   4.57615   4.58838
 Alpha virt. eigenvalues --    4.62399   4.65981   4.67281   4.68001   4.70025
 Alpha virt. eigenvalues --    4.74570   4.75330   4.78131   4.81637   4.83438
 Alpha virt. eigenvalues --    4.87858   4.89014   4.93692   4.96227   4.98179
 Alpha virt. eigenvalues --    5.02568   5.04970   5.23244   5.23509
          Condensed to atoms (all electrons):
 Mulliken atomic charges:
              1
     1  C   -0.278657
     2  N   -0.780060
     3  C    0.808119
     4  O   -0.621876
     5  C    0.113425
     6  C   -0.482412
     7  C   -0.347085
     8  C   -0.320696
     9  C   -0.353127
    10  C   -0.180641
    11  C   -0.174219
    12  C   -0.355136
    13  C   -0.310433
    14  C   -0.329905
    15  C    0.090716
    16  C   -0.510044
    17  N   -0.787321
    18  C    0.767359
    19  C   -0.595750
    20  O   -0.613351
    21  C    0.820364
    22  O   -0.640712
    23  N   -0.805662
    24  C   -0.275364
    25  N   -0.843665
    26  C    0.743319
    27  C   -0.589104
    28  O   -0.591530
    29  H    0.185095
    30  H    0.198215
    31  H    0.161684
    32  H    0.389942
    33  H    0.195332
    34  H    0.150670
    35  H    0.213299
    36  H    0.170114
    37  H    0.205523
    38  H    0.174696
    39  H    0.149753
    40  H    0.185732
    41  H    0.176265
    42  H    0.188533
    43  H    0.177532
    44  H    0.173526
    45  H    0.163807
    46  H    0.151495
    47  H    0.197372
    48  H    0.174687
    49  H    0.186564
    50  H    0.184311
    51  H    0.149854
    52  H    0.226985
    53  H    0.389257
    54  H    0.211748
    55  H    0.208688
    56  H    0.176470
    57  H    0.396351
    58  H    0.166437
    59  H    0.197439
    60  H    0.185238
    61  H    0.385013
    62  H    0.218411
    63  H    0.176688
    64  H    0.200721
 Sum of Mulliken atomic charges =   0.00000
 Mulliken charges with hydrogens summed into heavy atoms:
              1
     1  C    0.266338
     2  N   -0.390118
     3  C    0.808119
     4  O   -0.621876
     5  C    0.113425
     6  C    0.076889
     7  C    0.028552
     8  C    0.003753
     9  C    0.008871
    10  C    0.007893
    11  C    0.003313
    12  C   -0.017804
    13  C    0.038435
    14  C    0.031345
    15  C    0.090716
    16  C    0.051107
    17  N   -0.398064
    18  C    0.767359
    19  C    0.001156
    20  O   -0.613351
    21  C    0.820364
    22  O   -0.640712
    23  N   -0.409311
    24  C    0.273750
    25  N   -0.458652
    26  C    0.743319
    27  C    0.006716
    28  O   -0.591530
 Sum of Mulliken charges with hydrogens summed into heavy atoms =   0.00000
 Electronic spatial extent (au):  <R**2>=          24290.4416
 Charge=              0.0000 electrons
 Dipole moment (field-independent basis, Debye):
    X=             -1.3211    Y=              3.3736    Z=             -5.0705  Tot=              6.2320
 Quadrupole moment (field-independent basis, Debye-Ang):
   XX=           -205.0538   YY=           -163.4630   ZZ=           -167.2107
   XY=            -30.8659   XZ=             13.5086   YZ=             -5.1804
 Traceless Quadrupole moment (field-independent basis, Debye-Ang):
   XX=            -26.4779   YY=             15.1128   ZZ=             11.3651
   XY=            -30.8659   XZ=             13.5086   YZ=             -5.1804
 Octapole moment (field-independent basis, Debye-Ang**2):
  XXX=           -262.4787  YYY=             25.8961  ZZZ=             31.6597  XYY=              4.0027
  XXY=            125.5911  XXZ=           -242.0465  XZZ=             56.7424  YZZ=             -5.4341
  YYZ=             -6.9475  XYZ=            -71.4921
 Hexadecapole moment (field-independent basis, Debye-Ang**3):
 XXXX=         -30672.7985 YYYY=          -1941.7429 ZZZZ=          -1755.8447 XXXY=           -389.1837
 XXXZ=            669.5895 YYYX=           -159.2960 YYYZ=             11.9952 ZZZX=            160.2504
 ZZZY=            -40.7870 XXYY=          -4487.7475 XXZZ=          -4870.0616 YYZZ=           -620.5530
 XXYZ=           -145.4377 YYXZ=             33.9571 ZZXY=            -37.5214
 N-N= 2.637646451292D+03 E-N=-8.307026534532D+03  KE= 1.294034330241D+03
 1\1\GINC-MOSURA\SP\RHF\6-31G(d)\C20H36N4O4\MARIE\05-Dec-2019\0\\#SP HF
 /6-31G* Geom=(ModRedundant)\\paramfit run\\0,1\C,0,0.,0.,0.\N,0,1.4481
 87,0.,0.\C,0,2.1232,0.47592,1.072365\O,0,1.590179,0.696732,2.124447\C,
 0,3.650505,0.594143,0.921539\C,0,4.198902,1.549248,1.986845\C,0,4.3077
 51,-0.809116,1.023981\C,0,5.805234,-0.909381,1.366214\C,0,6.206316,-0.
 826382,2.852445\C,0,5.54245,-1.863858,3.727203\C,0,6.049495,-3.014171,
 4.140052\C,0,7.418182,-3.575462,3.837721\C,0,8.429137,-3.43553,4.99008
 9\C,0,7.986561,-4.175592,6.259478\C,0,8.991192,-4.26622,7.43725\C,0,8.
 28687,-4.993837,8.59395\N,0,10.143939,-5.044512,7.004853\C,0,11.255209
 ,-5.168199,7.787692\C,0,12.488346,-5.667219,7.069948\O,0,11.260416,-4.
 903153,8.957677\C,0,9.472934,-2.83907,7.783507\O,0,10.36846,-2.334177,
 7.161377\N,0,8.785011,-2.162245,8.728309\C,0,9.214012,-0.840371,9.1367
 3\N,0,3.997412,1.070275,-0.425452\C,0,3.587019,2.267163,-0.934086\C,0,
 4.328148,2.727659,-2.172145\O,0,2.697134,2.905425,-0.447397\H,0,-0.403
 259,1.006147,0.\H,0,-0.36496,-0.516002,0.875939\H,0,-0.345658,-0.52208
 6,-0.883346\H,0,1.904244,0.070913,-0.879357\H,0,3.932135,1.22176,2.980
 082\H,0,5.28092,1.595925,1.9075\H,0,3.792711,2.540594,1.848395\H,0,4.1
 71299,-1.268445,0.047447\H,0,3.733804,-1.407698,1.724385\H,0,6.142456,
 -1.871212,0.991004\H,0,6.362762,-0.159017,0.815315\H,0,5.985361,0.1588
 65,3.242102\H,0,7.284524,-0.931753,2.899349\H,0,4.541733,-1.621921,4.0
 46803\H,0,5.425971,-3.630516,4.768618\H,0,7.83559,-3.096333,2.960411\H
 ,0,7.311773,-4.629819,3.585523\H,0,9.385911,-3.810793,4.637761\H,0,8.5
 82083,-2.386334,5.206016\H,0,7.714742,-5.19784,6.005197\H,0,7.089839,-
 3.701946,6.641446\H,0,8.081563,-6.013288,8.288745\H,0,7.33596,-4.52779
 1,8.830498\H,0,8.903424,-5.025115,9.479739\H,0,10.324173,-5.029063,6.0
 27106\H,0,13.175098,-6.080309,7.79299\H,0,12.965988,-4.825763,6.577063
 \H,0,12.250192,-6.413776,6.320069\H,0,8.23028,-2.678183,9.369707\H,0,8
 .469836,-0.426585,9.804491\H,0,9.303726,-0.201969,8.270116\H,0,10.1731
 8,-0.867009,9.643722\H,0,4.82812,0.684785,-0.816437\H,0,3.710173,3.434
 604,-2.706288\H,0,4.588171,1.902533,-2.825678\H,0,5.244771,3.226201,-1
 .873716\\Version=EM64L-G09RevA.02\State=1-A\HF=-1295.6158537\RMSD=6.36
 7e-09\Dipole=0.5251951,-1.1803289,-2.0838695\Quadrupole=-21.8262772,-1
 .3650721,23.1913493,14.9670989,-13.8437291,3.3455028\PG=C01 [X(C20H36N
 4O4)]\\@


 I do not feel obliged to believe that the same God who
 has endowed us with sense, reason, and intellect has
 intended us to forgo their use.
                   --Galileo Galilei
 Job cpu time:  0 days  0 hours  5 minutes  5.8 seconds.
 File lengths (MBytes):  RWF=    132 Int=      0 D2E=      0 Chk=     10 Scr=      1
 Normal termination of Gaussian 09 at Thu Dec  5 16:09:32 2019.
