 Entering Gaussian System, Link 0=g09
 Input=CHI1_130.gau
 Output=CHI1_130.log
 Initial command:
 /home/marie/Utilities//g09/l1.exe /tmp/g09/Gau-4357.inp -scrdir=/tmp/g09/
 Entering Link 1 = /home/marie/Utilities//g09/l1.exe PID=      4359.
  
 Copyright (c) 1988,1990,1992,1993,1995,1998,2003,2009, Gaussian, Inc.
                  All Rights Reserved.
  
 This is part of the Gaussian(R) 09 program.  It is based on
 the Gaussian(R) 03 system (copyright 2003, Gaussian, Inc.),
 the Gaussian(R) 98 system (copyright 1998, Gaussian, Inc.),
 the Gaussian(R) 94 system (copyright 1995, Gaussian, Inc.),
 the Gaussian 92(TM) system (copyright 1992, Gaussian, Inc.),
 the Gaussian 90(TM) system (copyright 1990, Gaussian, Inc.),
 the Gaussian 88(TM) system (copyright 1988, Gaussian, Inc.),
 the Gaussian 86(TM) system (copyright 1986, Carnegie Mellon
 University), and the Gaussian 82(TM) system (copyright 1983,
 Carnegie Mellon University). Gaussian is a federally registered
 trademark of Gaussian, Inc.
  
 This software contains proprietary and confidential information,
 including trade secrets, belonging to Gaussian, Inc.
  
 This software is provided under written license and may be
 used, copied, transmitted, or stored only in accord with that
 written license.
  
 The following legend is applicable only to US Government
 contracts under FAR:
  
                    RESTRICTED RIGHTS LEGEND
  
 Use, reproduction and disclosure by the US Government is
 subject to restrictions as set forth in subparagraphs (a)
 and (c) of the Commercial Computer Software - Restricted
 Rights clause in FAR 52.227-19.
  
 Gaussian, Inc.
 340 Quinnipiac St., Bldg. 40, Wallingford CT 06492
  
  
 ---------------------------------------------------------------
 Warning -- This program may not be used in any manner that
 competes with the business of Gaussian, Inc. or will provide
 assistance to any competitor of Gaussian, Inc.  The licensee
 of this program is prohibited from giving any competitor of
 Gaussian, Inc. access to this program.  By using this program,
 the user acknowledges that Gaussian, Inc. is engaged in the
 business of creating and licensing software in the field of
 computational chemistry and represents and warrants to the
 licensee that it is not a competitor of Gaussian, Inc. and that
 it will not use this program in any manner prohibited above.
 ---------------------------------------------------------------
  

 Cite this work as:
 Gaussian 09, Revision A.02,
 M. J. Frisch, G. W. Trucks, H. B. Schlegel, G. E. Scuseria, 
 M. A. Robb, J. R. Cheeseman, G. Scalmani, V. Barone, B. Mennucci, 
 G. A. Petersson, H. Nakatsuji, M. Caricato, X. Li, H. P. Hratchian, 
 A. F. Izmaylov, J. Bloino, G. Zheng, J. L. Sonnenberg, M. Hada, 
 M. Ehara, K. Toyota, R. Fukuda, J. Hasegawa, M. Ishida, T. Nakajima, 
 Y. Honda, O. Kitao, H. Nakai, T. Vreven, J. A. Montgomery, Jr., 
 J. E. Peralta, F. Ogliaro, M. Bearpark, J. J. Heyd, E. Brothers, 
 K. N. Kudin, V. N. Staroverov, R. Kobayashi, J. Normand, 
 K. Raghavachari, A. Rendell, J. C. Burant, S. S. Iyengar, J. Tomasi, 
 M. Cossi, N. Rega, J. M. Millam, M. Klene, J. E. Knox, J. B. Cross, 
 V. Bakken, C. Adamo, J. Jaramillo, R. Gomperts, R. E. Stratmann, 
 O. Yazyev, A. J. Austin, R. Cammi, C. Pomelli, J. W. Ochterski, 
 R. L. Martin, K. Morokuma, V. G. Zakrzewski, G. A. Voth, 
 P. Salvador, J. J. Dannenberg, S. Dapprich, A. D. Daniels, 
 O. Farkas, J. B. Foresman, J. V. Ortiz, J. Cioslowski, 
 and D. J. Fox, Gaussian, Inc., Wallingford CT, 2009.
 
 ******************************************
 Gaussian 09:  EM64L-G09RevA.02 11-Jun-2009
                 5-Dec-2019 
 ******************************************
 %chk=CHI1_130
 %NoSave
 ---------------------------------
 #SP HF/6-31G* Geom=(ModRedundant)
 ---------------------------------
 1/18=120,38=1/1;
 2/12=2,17=6,18=5,40=1/2;
 3/5=1,6=6,7=1,11=9,16=1,25=1,30=1/1,2,3;
 4//1;
 5/5=2,38=5/2;
 6/7=2,8=2,9=2,10=2,28=1/1;
 99/5=1,9=1/99;
 ------------
 paramfit run
 ------------
 Symbolic Z-matrix:
 Charge =  0 Multiplicity = 1
 C-CT--0.3208          0.        0.        0. 
 N-N--0.5622           1.44819   0.        0. 
 C-C-0.8053            2.1232    0.47592   1.07237 
 O-O--0.6151           1.59018   0.69673   2.12445 
 C-CX-0.0839           3.65051   0.59414   0.92154 
 C-CU--0.3230          4.1989    1.54925   1.98685 
 C-CU--0.0657          4.30775  -0.80912   1.02398 
 C-CU--0.0109          5.31231  -1.24424  -0.05822 
 C-CU-0.0816           6.77032  -0.76426   0.0849 
 C-CM--0.2354          7.42062  -1.1547    1.3914 
 C-CM--0.2653          8.2301   -2.17717   1.61515 
 C-CU-0.1214           8.7037   -3.20833   0.61909 
 C-CU--0.0354          10.14176  -2.98925   0.11553 
 C-CU--0.0984          11.17976  -3.04611   1.24435 
 C-CU-0.1300           12.68067  -3.01866   0.85554 
 C-CU--0.3561          13.49818  -3.02289   2.1575 
 N-N--0.7186           12.98329  -4.21954   0.08882 
 C-C-0.8537            14.19691  -4.39618  -0.51034 
 C-CT--0.3868          14.236   -5.47899  -1.56428 
 O-O--0.6323           15.16399  -3.74534  -0.22696 
 C-C-0.7903            12.93193  -1.79076  -0.04881 
 O-O--0.6136           12.70832  -1.8507   -1.22793 
 N-N--0.5650           13.30682  -0.6412    0.55281 
 C-CT--0.3231          13.60773   0.53296  -0.24028 
 N-N--0.7191           3.99741   1.07028  -0.42545 
 C-C-0.8539            3.58702   2.26716  -0.93409 
 C-CT--0.3903          4.32815   2.72766  -2.17214 
 O-O--0.6290           2.69713   2.90543  -0.4474 
 H-H1-0.1459          -0.40326   1.00615   0. 
 H-H1-0.1459          -0.36496  -0.516     0.87594 
 H-H1-0.1459          -0.34566  -0.52209  -0.88335 
 H-H-0.3572            1.90424   0.07091  -0.87936 
 H-HC-0.0997           3.93214   1.22176   2.98008 
 H-HC-0.0997           5.28092   1.59593   1.9075 
 H-HC-0.0997           3.79271   2.54059   1.8484 
 H-HC-0.0347           3.48497  -1.52027   1.00124 
 H-HC-0.0347           4.76492  -0.90435   2.00388 
 H-HC-0.0243           5.32431  -2.33022  -0.04752 
 H-HC-0.0243           4.94851  -0.9568   -1.03924 
 H-HC-0.0171           6.81988   0.31103  -0.02764 
 H-HC-0.0171           7.32684  -1.17825  -0.74861 
 H-HA-0.1313           7.19178  -0.51355   2.22726 
 H-HA-0.1359           8.60551  -2.29822   2.61923 
 H-HC-0.0092           8.04374  -3.23245  -0.23959 
 H-HC-0.0092           8.63594  -4.19244   1.08118 
 H-HC-0.0318           10.34728  -3.74558  -0.63686 
 H-HC-0.0318           10.20043  -2.03727  -0.39548 
 H-HC-0.0435           11.02803  -3.95086   1.82911 
 H-HC-0.0435           11.0089  -2.21148   1.91409 
 H-HC-0.1066           13.33234  -3.9643    2.66822 
 H-HC-0.1066           13.1777  -2.23008   2.82543 
 H-HC-0.1066           14.55607  -2.92622   1.96446 
 H-H-0.3529            12.21506  -4.61298  -0.40487 
 H-HC-0.1047           15.2574  -5.7984   -1.70494 
 H-HC-0.1047           13.86851  -5.06561  -2.49872 
 H-HC-0.1047           13.61755  -6.32955  -1.29886 
 H-H-0.3615            13.70597  -0.69095   1.46029 
 H-H1-0.1469           13.7663   1.36957   0.42745 
 H-H1-0.1469           12.77613   0.75549  -0.89263 
 H-H1-0.1469           14.49369   0.39047  -0.85062 
 H-H-0.3570            4.82812   0.68479  -0.81644 
 H-HC-0.1060           3.71017   3.4346   -2.70629 
 H-HC-0.1060           4.58817   1.90253  -2.82568 
 H-HC-0.1060           5.24477   3.2262   -1.87372 
 
 The following ModRedundant input section has been read:
 D    *    5    7    * F                                                       
 Stoichiometry    C20H36N4O4
 Framework group  C1[X(C20H36N4O4)]
 Deg. of freedom   186
 Full point group                 C1      NOp   1
 Largest Abelian subgroup         C1      NOp   1
 Largest concise Abelian subgroup C1      NOp   1
                         Standard orientation:                         
 ---------------------------------------------------------------------
 Center     Atomic      Atomic             Coordinates (Angstroms)
 Number     Number       Type             X           Y           Z
 ---------------------------------------------------------------------
      1          6    20001001       -7.904867   -1.557694   -0.996721
      2          7    20001014       -6.549042   -1.087402   -0.802269
      3          6    20001002       -6.104828   -0.805061    0.444754
      4          8    20001024       -6.701697   -1.134003    1.432322
      5          6    90000001       -4.713493   -0.154104    0.543896
      6          6    90000002       -4.555817    0.513515    1.914029
      7          6    90000002       -3.607778   -1.216636    0.298901
      8          6    90000002       -2.493662   -0.914156   -0.719373
      9          6    90000002       -1.299830   -0.063713   -0.241722
     10          6    20001004       -0.579298   -0.634224    0.957290
     11          6    20001004        0.532979   -1.350853    0.963695
     12          6    90000002        1.357474   -1.777001   -0.227253
     13          6    90000002        2.636687   -0.948011   -0.441628
     14          6    90000002        3.606590   -1.038109    0.744157
     15          6    90000002        5.009667   -0.396600    0.587672
     16          6    90000002        5.751323   -0.569527    1.923147
     17          7    20001014        5.729189   -1.105021   -0.462070
     18          6    20001002        6.938979   -0.667185   -0.917879
     19          6    20001001        7.375918   -1.260828   -2.237529
     20          8    20001024        7.610536    0.128199   -0.321625
     21          6    20001002        4.831571    1.073513    0.145212
     22          8    20001024        4.666079    1.341516   -1.014408
     23          7    20001014        4.767550    2.011669    1.114616
     24          6    20001001        4.652630    3.413204    0.767207
     25          7    20001014       -4.529701    0.829594   -0.533133
     26          6    20001002       -5.324033    1.925279   -0.701006
     27          6    20001001       -4.767784    2.986794   -1.627230
     28          8    20001024       -6.390535    2.038618   -0.166339
     29          1    20001035       -8.635439   -0.798293   -0.742706
     30          1    20001035       -8.082453   -2.425271   -0.378258
     31          1    20001035       -8.028192   -1.837036   -2.035524
     32          1    20001029       -6.129932   -0.582967   -1.548042
     33          1    20001034       -4.709889   -0.194516    2.713958
     34          1    20001034       -3.557650    0.932691    1.998834
     35          1    20001034       -5.281262    1.305088    2.032638
     36          1    20001034       -4.128115   -2.105550   -0.050819
     37          1    20001034       -3.165321   -1.479596    1.254603
     38          1    20001034       -2.101591   -1.874837   -1.040296
     39          1    20001034       -2.916133   -0.450422   -1.604723
     40          1    20001034       -1.628543    0.941493   -0.011783
     41          1    20001034       -0.617412    0.028941   -1.079311
     42          1    20001033       -1.034689   -0.420235    1.910674
     43          1    20001033        0.907493   -1.671281    1.923292
     44          1    20001034        0.764684   -1.725991   -1.132497
     45          1    20001034        1.630391   -2.824135   -0.102273
     46          1    20001034        3.109047   -1.299366   -1.354754
     47          1    20001034        2.367486    0.084067   -0.623770
     48          1    20001034        3.770675   -2.083234    0.997774
     49          1    20001034        3.140814   -0.578613    1.608024
     50          1    20001034        5.916486   -1.626957    2.093865
     51          1    20001034        5.160171   -0.195024    2.752404
     52          1    20001034        6.711559   -0.075988    1.912873
     53          1    20001029        5.157560   -1.537847   -1.150993
     54          1    20001034        8.446968   -1.164818   -2.330775
     55          1    20001034        6.904903   -0.702389   -3.040906
     56          1    20001034        7.090209   -2.302954   -2.330945
     57          1    20001029        5.141127    1.794300    2.008205
     58          1    20001035        4.494618    3.982098    1.674022
     59          1    20001035        3.808620    3.557860    0.108915
     60          1    20001035        5.543902    3.778590    0.267328
     61          1    20001029       -3.609146    0.888769   -0.908133
     62          1    20001034       -5.584056    3.590025   -1.997074
     63          1    20001034       -4.222177    2.559254   -2.460940
     64          1    20001034       -4.090325    3.625999   -1.070213
 ---------------------------------------------------------------------
 Rotational constants (GHZ):      0.3902128      0.0461585      0.0445505
 Standard basis: 6-31G(d) (6D, 7F)
 There are   492 symmetry adapted basis functions of A   symmetry.
 Integral buffers will be    131072 words long.
 Raffenetti 1 integral format.
 Two-electron integral symmetry is turned on.
   492 basis functions,   928 primitive gaussians,   492 cartesian basis functions
   108 alpha electrons      108 beta electrons
       nuclear repulsion energy      2653.7589384083 Hartrees.
 NAtoms=   64 NActive=   64 NUniq=   64 SFac= 7.50D-01 NAtFMM=   80 NAOKFM=F Big=T
 One-electron integrals computed using PRISM.
 NBasis=   492 RedAO= T  NBF=   492
 NBsUse=   492 1.00D-06 NBFU=   492
 Harris functional with IExCor=  205 diagonalized for initial guess.
 ExpMin= 1.61D-01 ExpMax= 5.48D+03 ExpMxC= 8.25D+02 IAcc=1 IRadAn=         1 AccDes= 0.00D+00
 HarFok:  IExCor=  205 AccDes= 0.00D+00 IRadAn=         1 IDoV= 1
 ScaDFX=  1.000000  1.000000  1.000000  1.000000
 FoFCou: FMM=F IPFlag=           0 FMFlag=      100000 FMFlg1=           1
         NFxFlg=           0 DoJE=T BraDBF=F KetDBF=T FulRan=T
         Omega=  0.000000  0.000000  1.000000  0.000000  0.000000 ICntrl=     500 IOpCl=  0
         NMat0=    1 NMatS0=    1 NMatT0=    0 NMatD0=    1 NMtDS0=    0 NMtDT0=    0
         I1Cent=           4 NGrid=           0.
 Petite list used in FoFCou.
 Initial guess orbital symmetries:
       Occupied  (A) (A) (A) (A) (A) (A) (A) (A) (A) (A) (A) (A)
                 (A) (A) (A) (A) (A) (A) (A) (A) (A) (A) (A) (A)
                 (A) (A) (A) (A) (A) (A) (A) (A) (A) (A) (A) (A)
                 (A) (A) (A) (A) (A) (A) (A) (A) (A) (A) (A) (A)
                 (A) (A) (A) (A) (A) (A) (A) (A) (A) (A) (A) (A)
                 (A) (A) (A) (A) (A) (A) (A) (A) (A) (A) (A) (A)
                 (A) (A) (A) (A) (A) (A) (A) (A) (A) (A) (A) (A)
                 (A) (A) (A) (A) (A) (A) (A) (A) (A) (A) (A) (A)
                 (A) (A) (A) (A) (A) (A) (A) (A) (A) (A) (A) (A)
       Virtual   (A) (A) (A) (A) (A) (A) (A) (A) (A) (A) (A) (A)
                 (A) (A) (A) (A) (A) (A) (A) (A) (A) (A) (A) (A)
                 (A) (A) (A) (A) (A) (A) (A) (A) (A) (A) (A) (A)
                 (A) (A) (A) (A) (A) (A) (A) (A) (A) (A) (A) (A)
                 (A) (A) (A) (A) (A) (A) (A) (A) (A) (A) (A) (A)
                 (A) (A) (A) (A) (A) (A) (A) (A) (A) (A) (A) (A)
                 (A) (A) (A) (A) (A) (A) (A) (A) (A) (A) (A) (A)
                 (A) (A) (A) (A) (A) (A) (A) (A) (A) (A) (A) (A)
                 (A) (A) (A) (A) (A) (A) (A) (A) (A) (A) (A) (A)
                 (A) (A) (A) (A) (A) (A) (A) (A) (A) (A) (A) (A)
                 (A) (A) (A) (A) (A) (A) (A) (A) (A) (A) (A) (A)
                 (A) (A) (A) (A) (A) (A) (A) (A) (A) (A) (A) (A)
                 (A) (A) (A) (A) (A) (A) (A) (A) (A) (A) (A) (A)
                 (A) (A) (A) (A) (A) (A) (A) (A) (A) (A) (A) (A)
                 (A) (A) (A) (A) (A) (A) (A) (A) (A) (A) (A) (A)
                 (A) (A) (A) (A) (A) (A) (A) (A) (A) (A) (A) (A)
                 (A) (A) (A) (A) (A) (A) (A) (A) (A) (A) (A) (A)
                 (A) (A) (A) (A) (A) (A) (A) (A) (A) (A) (A) (A)
                 (A) (A) (A) (A) (A) (A) (A) (A) (A) (A) (A) (A)
                 (A) (A) (A) (A) (A) (A) (A) (A) (A) (A) (A) (A)
                 (A) (A) (A) (A) (A) (A) (A) (A) (A) (A) (A) (A)
                 (A) (A) (A) (A) (A) (A) (A) (A) (A) (A) (A) (A)
                 (A) (A) (A) (A) (A) (A) (A) (A) (A) (A) (A) (A)
                 (A) (A) (A) (A) (A) (A) (A) (A) (A) (A) (A) (A)
                 (A) (A) (A) (A) (A) (A) (A) (A) (A) (A) (A) (A)
                 (A) (A) (A) (A) (A) (A) (A) (A) (A) (A) (A) (A)
                 (A) (A) (A) (A) (A) (A) (A) (A) (A) (A) (A) (A)
                 (A) (A) (A) (A) (A) (A) (A) (A) (A) (A) (A) (A)
                 (A) (A) (A) (A) (A) (A) (A) (A) (A) (A) (A) (A)
                 (A) (A) (A) (A) (A) (A) (A) (A) (A) (A) (A) (A)
                 (A) (A) (A) (A) (A) (A) (A) (A) (A) (A) (A) (A)
                 (A) (A) (A) (A) (A) (A) (A) (A) (A) (A) (A) (A)
 The electronic state of the initial guess is 1-A.
 Requested convergence on RMS density matrix=1.00D-08 within 128 cycles.
 Requested convergence on MAX density matrix=1.00D-06.
 Requested convergence on             energy=1.00D-06.
 No special actions if energy rises.
 Integral accuracy reduced to 1.0D-05 until final iterations.
 Initial convergence to 1.0D-05 achieved.  Increase integral accuracy.
 SCF Done:  E(RHF) =  -1295.60616290     A.U. after   14 cycles
             Convg  =    0.6926D-08             -V/T =  2.0012

 **********************************************************************

            Population analysis using the SCF density.

 **********************************************************************

 Orbital symmetries:
       Occupied  (A) (A) (A) (A) (A) (A) (A) (A) (A) (A) (A) (A)
                 (A) (A) (A) (A) (A) (A) (A) (A) (A) (A) (A) (A)
                 (A) (A) (A) (A) (A) (A) (A) (A) (A) (A) (A) (A)
                 (A) (A) (A) (A) (A) (A) (A) (A) (A) (A) (A) (A)
                 (A) (A) (A) (A) (A) (A) (A) (A) (A) (A) (A) (A)
                 (A) (A) (A) (A) (A) (A) (A) (A) (A) (A) (A) (A)
                 (A) (A) (A) (A) (A) (A) (A) (A) (A) (A) (A) (A)
                 (A) (A) (A) (A) (A) (A) (A) (A) (A) (A) (A) (A)
                 (A) (A) (A) (A) (A) (A) (A) (A) (A) (A) (A) (A)
       Virtual   (A) (A) (A) (A) (A) (A) (A) (A) (A) (A) (A) (A)
                 (A) (A) (A) (A) (A) (A) (A) (A) (A) (A) (A) (A)
                 (A) (A) (A) (A) (A) (A) (A) (A) (A) (A) (A) (A)
                 (A) (A) (A) (A) (A) (A) (A) (A) (A) (A) (A) (A)
                 (A) (A) (A) (A) (A) (A) (A) (A) (A) (A) (A) (A)
                 (A) (A) (A) (A) (A) (A) (A) (A) (A) (A) (A) (A)
                 (A) (A) (A) (A) (A) (A) (A) (A) (A) (A) (A) (A)
                 (A) (A) (A) (A) (A) (A) (A) (A) (A) (A) (A) (A)
                 (A) (A) (A) (A) (A) (A) (A) (A) (A) (A) (A) (A)
                 (A) (A) (A) (A) (A) (A) (A) (A) (A) (A) (A) (A)
                 (A) (A) (A) (A) (A) (A) (A) (A) (A) (A) (A) (A)
                 (A) (A) (A) (A) (A) (A) (A) (A) (A) (A) (A) (A)
                 (A) (A) (A) (A) (A) (A) (A) (A) (A) (A) (A) (A)
                 (A) (A) (A) (A) (A) (A) (A) (A) (A) (A) (A) (A)
                 (A) (A) (A) (A) (A) (A) (A) (A) (A) (A) (A) (A)
                 (A) (A) (A) (A) (A) (A) (A) (A) (A) (A) (A) (A)
                 (A) (A) (A) (A) (A) (A) (A) (A) (A) (A) (A) (A)
                 (A) (A) (A) (A) (A) (A) (A) (A) (A) (A) (A) (A)
                 (A) (A) (A) (A) (A) (A) (A) (A) (A) (A) (A) (A)
                 (A) (A) (A) (A) (A) (A) (A) (A) (A) (A) (A) (A)
                 (A) (A) (A) (A) (A) (A) (A) (A) (A) (A) (A) (A)
                 (A) (A) (A) (A) (A) (A) (A) (A) (A) (A) (A) (A)
                 (A) (A) (A) (A) (A) (A) (A) (A) (A) (A) (A) (A)
                 (A) (A) (A) (A) (A) (A) (A) (A) (A) (A) (A) (A)
                 (A) (A) (A) (A) (A) (A) (A) (A) (A) (A) (A) (A)
                 (A) (A) (A) (A) (A) (A) (A) (A) (A) (A) (A) (A)
                 (A) (A) (A) (A) (A) (A) (A) (A) (A) (A) (A) (A)
                 (A) (A) (A) (A) (A) (A) (A) (A) (A) (A) (A) (A)
                 (A) (A) (A) (A) (A) (A) (A) (A) (A) (A) (A) (A)
                 (A) (A) (A) (A) (A) (A) (A) (A) (A) (A) (A) (A)
                 (A) (A) (A) (A) (A) (A) (A) (A) (A) (A) (A) (A)
                 (A) (A) (A) (A) (A) (A) (A) (A) (A) (A) (A) (A)
 The electronic state is 1-A.
 Alpha  occ. eigenvalues --  -20.53324 -20.52527 -20.52241 -20.51535 -15.58972
 Alpha  occ. eigenvalues --  -15.58517 -15.58058 -15.57052 -11.35563 -11.34735
 Alpha  occ. eigenvalues --  -11.34311 -11.33502 -11.29168 -11.28800 -11.25620
 Alpha  occ. eigenvalues --  -11.24538 -11.24341 -11.24217 -11.24129 -11.24118
 Alpha  occ. eigenvalues --  -11.23678 -11.23669 -11.23599 -11.23491 -11.23280
 Alpha  occ. eigenvalues --  -11.22952 -11.22291 -11.20754  -1.40257  -1.39930
 Alpha  occ. eigenvalues --   -1.38657  -1.38287  -1.25300  -1.24097  -1.23231
 Alpha  occ. eigenvalues --   -1.21680  -1.11948  -1.09779  -1.07701  -1.05228
 Alpha  occ. eigenvalues --   -1.01823  -0.99915  -0.99304  -0.95977  -0.95291
 Alpha  occ. eigenvalues --   -0.95110  -0.92809  -0.87439  -0.86178  -0.83447
 Alpha  occ. eigenvalues --   -0.81709  -0.80544  -0.80036  -0.77460  -0.76746
 Alpha  occ. eigenvalues --   -0.73252  -0.71974  -0.71084  -0.69034  -0.68784
 Alpha  occ. eigenvalues --   -0.67657  -0.65175  -0.65105  -0.64431  -0.63291
 Alpha  occ. eigenvalues --   -0.62693  -0.62409  -0.62071  -0.61939  -0.61922
 Alpha  occ. eigenvalues --   -0.61294  -0.60296  -0.59774  -0.59244  -0.59035
 Alpha  occ. eigenvalues --   -0.58703  -0.57797  -0.57197  -0.56966  -0.56576
 Alpha  occ. eigenvalues --   -0.55902  -0.55501  -0.55303  -0.54591  -0.54262
 Alpha  occ. eigenvalues --   -0.53789  -0.53527  -0.52852  -0.52505  -0.52258
 Alpha  occ. eigenvalues --   -0.51620  -0.50577  -0.50342  -0.49776  -0.49392
 Alpha  occ. eigenvalues --   -0.49295  -0.47260  -0.47137  -0.45951  -0.42648
 Alpha  occ. eigenvalues --   -0.42105  -0.41884  -0.41557  -0.39419  -0.38900
 Alpha  occ. eigenvalues --   -0.38781  -0.37851  -0.35891
 Alpha virt. eigenvalues --    0.15882   0.18666   0.19107   0.19798   0.21017
 Alpha virt. eigenvalues --    0.21232   0.21547   0.22396   0.22536   0.23314
 Alpha virt. eigenvalues --    0.24516   0.25275   0.26141   0.26655   0.26836
 Alpha virt. eigenvalues --    0.27355   0.28134   0.28390   0.28837   0.28993
 Alpha virt. eigenvalues --    0.29765   0.30293   0.30751   0.31009   0.31614
 Alpha virt. eigenvalues --    0.31783   0.31856   0.32426   0.32670   0.32947
 Alpha virt. eigenvalues --    0.33592   0.33787   0.34041   0.34302   0.34664
 Alpha virt. eigenvalues --    0.34919   0.35068   0.35517   0.36445   0.36671
 Alpha virt. eigenvalues --    0.37623   0.38267   0.38772   0.39457   0.39812
 Alpha virt. eigenvalues --    0.40128   0.41431   0.41809   0.42177   0.42711
 Alpha virt. eigenvalues --    0.43473   0.44337   0.45075   0.45395   0.46876
 Alpha virt. eigenvalues --    0.48538   0.49193   0.50590   0.51323   0.51672
 Alpha virt. eigenvalues --    0.54055   0.55581   0.57147   0.57867   0.59140
 Alpha virt. eigenvalues --    0.61367   0.63358   0.64049   0.68806   0.69769
 Alpha virt. eigenvalues --    0.70619   0.71026   0.71977   0.72346   0.73303
 Alpha virt. eigenvalues --    0.73547   0.74366   0.74903   0.75445   0.75800
 Alpha virt. eigenvalues --    0.76278   0.76470   0.78015   0.78131   0.78234
 Alpha virt. eigenvalues --    0.78832   0.79220   0.80153   0.81091   0.82869
 Alpha virt. eigenvalues --    0.83378   0.83698   0.84395   0.85088   0.86395
 Alpha virt. eigenvalues --    0.86977   0.87157   0.88213   0.90122   0.90480
 Alpha virt. eigenvalues --    0.91153   0.91231   0.91930   0.92351   0.93340
 Alpha virt. eigenvalues --    0.93813   0.94862   0.95742   0.96306   0.96743
 Alpha virt. eigenvalues --    0.97394   0.98192   0.98739   0.99695   1.00175
 Alpha virt. eigenvalues --    1.00980   1.01476   1.02036   1.02352   1.03257
 Alpha virt. eigenvalues --    1.03411   1.03920   1.04612   1.06159   1.06976
 Alpha virt. eigenvalues --    1.07396   1.08096   1.09422   1.09700   1.10092
 Alpha virt. eigenvalues --    1.10966   1.12332   1.12670   1.13148   1.13768
 Alpha virt. eigenvalues --    1.13835   1.14007   1.14220   1.14468   1.14837
 Alpha virt. eigenvalues --    1.14962   1.15549   1.15773   1.16295   1.16620
 Alpha virt. eigenvalues --    1.17614   1.17731   1.18398   1.18655   1.18771
 Alpha virt. eigenvalues --    1.19059   1.19580   1.20379   1.20620   1.20948
 Alpha virt. eigenvalues --    1.21337   1.21782   1.21957   1.22180   1.22582
 Alpha virt. eigenvalues --    1.23024   1.23173   1.24449   1.24845   1.25382
 Alpha virt. eigenvalues --    1.25866   1.26384   1.27516   1.27983   1.28620
 Alpha virt. eigenvalues --    1.28958   1.29363   1.30466   1.30915   1.31891
 Alpha virt. eigenvalues --    1.32471   1.33386   1.35155   1.35859   1.37703
 Alpha virt. eigenvalues --    1.38260   1.39425   1.40702   1.41467   1.42642
 Alpha virt. eigenvalues --    1.43317   1.44912   1.45388   1.45994   1.47730
 Alpha virt. eigenvalues --    1.48440   1.50404   1.52374   1.53799   1.54689
 Alpha virt. eigenvalues --    1.56645   1.57517   1.58509   1.59421   1.60782
 Alpha virt. eigenvalues --    1.61750   1.63266   1.64280   1.67163   1.68424
 Alpha virt. eigenvalues --    1.68972   1.70514   1.71680   1.72459   1.73353
 Alpha virt. eigenvalues --    1.74069   1.75855   1.77716   1.77985   1.78910
 Alpha virt. eigenvalues --    1.79841   1.80287   1.82130   1.85483   1.88380
 Alpha virt. eigenvalues --    1.88831   1.90436   1.92063   1.92452   1.94567
 Alpha virt. eigenvalues --    1.95827   1.96863   1.97564   1.98079   2.00568
 Alpha virt. eigenvalues --    2.03838   2.05559   2.06166   2.06945   2.07280
 Alpha virt. eigenvalues --    2.08661   2.09679   2.10998   2.11602   2.11998
 Alpha virt. eigenvalues --    2.13182   2.13633   2.14261   2.14893   2.15699
 Alpha virt. eigenvalues --    2.15943   2.17272   2.17705   2.18382   2.19430
 Alpha virt. eigenvalues --    2.20003   2.20866   2.21751   2.22182   2.23779
 Alpha virt. eigenvalues --    2.24090   2.24839   2.25191   2.25731   2.26971
 Alpha virt. eigenvalues --    2.27497   2.28875   2.29505   2.30144   2.31198
 Alpha virt. eigenvalues --    2.32189   2.33473   2.34355   2.34684   2.35279
 Alpha virt. eigenvalues --    2.36217   2.36768   2.37009   2.38410   2.38967
 Alpha virt. eigenvalues --    2.39143   2.41277   2.41363   2.42809   2.43459
 Alpha virt. eigenvalues --    2.43733   2.45836   2.46694   2.48276   2.50360
 Alpha virt. eigenvalues --    2.52528   2.52977   2.53957   2.55112   2.55753
 Alpha virt. eigenvalues --    2.56632   2.57517   2.57878   2.59012   2.59864
 Alpha virt. eigenvalues --    2.62434   2.63019   2.63993   2.64487   2.65395
 Alpha virt. eigenvalues --    2.66465   2.68290   2.68945   2.69597   2.71917
 Alpha virt. eigenvalues --    2.72535   2.72731   2.73441   2.74745   2.75577
 Alpha virt. eigenvalues --    2.76771   2.77225   2.78221   2.78829   2.80258
 Alpha virt. eigenvalues --    2.81310   2.81756   2.83820   2.84705   2.85776
 Alpha virt. eigenvalues --    2.86948   2.87791   2.90337   2.90767   2.94586
 Alpha virt. eigenvalues --    2.95259   2.97319   2.98216   2.98504   3.00749
 Alpha virt. eigenvalues --    3.02508   3.04459   3.04926   3.05348   3.06925
 Alpha virt. eigenvalues --    3.10415   3.11160   3.12517   3.13292   3.14599
 Alpha virt. eigenvalues --    3.15292   3.17512   3.20631   3.29352   3.30019
 Alpha virt. eigenvalues --    3.33830   3.35539   3.38712   3.39732   3.40269
 Alpha virt. eigenvalues --    3.42116   3.42356   3.53742   3.55122   3.57043
 Alpha virt. eigenvalues --    3.60654   4.37846   4.41479   4.47037   4.47375
 Alpha virt. eigenvalues --    4.48610   4.51363   4.53419   4.57641   4.59652
 Alpha virt. eigenvalues --    4.62278   4.65975   4.67169   4.68298   4.69619
 Alpha virt. eigenvalues --    4.71516   4.74855   4.77277   4.82355   4.83230
 Alpha virt. eigenvalues --    4.87520   4.88621   4.93385   4.95753   4.97763
 Alpha virt. eigenvalues --    5.01463   5.05129   5.22949   5.24831
          Condensed to atoms (all electrons):
 Mulliken atomic charges:
              1
     1  C   -0.278056
     2  N   -0.779572
     3  C    0.790533
     4  O   -0.615694
     5  C    0.142961
     6  C   -0.477225
     7  C   -0.352306
     8  C   -0.360794
     9  C   -0.358452
    10  C   -0.175352
    11  C   -0.170255
    12  C   -0.357412
    13  C   -0.310933
    14  C   -0.330183
    15  C    0.090851
    16  C   -0.510107
    17  N   -0.787146
    18  C    0.767197
    19  C   -0.595876
    20  O   -0.613052
    21  C    0.820057
    22  O   -0.640582
    23  N   -0.806204
    24  C   -0.275228
    25  N   -0.871433
    26  C    0.747247
    27  C   -0.591895
    28  O   -0.592609
    29  H    0.185053
    30  H    0.198297
    31  H    0.161279
    32  H    0.389338
    33  H    0.196631
    34  H    0.142857
    35  H    0.210476
    36  H    0.199173
    37  H    0.195522
    38  H    0.190027
    39  H    0.160436
    40  H    0.164267
    41  H    0.182428
    42  H    0.183622
    43  H    0.180588
    44  H    0.174534
    45  H    0.167817
    46  H    0.153962
    47  H    0.195606
    48  H    0.176225
    49  H    0.185049
    50  H    0.185301
    51  H    0.149189
    52  H    0.227858
    53  H    0.389320
    54  H    0.212540
    55  H    0.208677
    56  H    0.177076
    57  H    0.396733
    58  H    0.166306
    59  H    0.195869
    60  H    0.186591
    61  H    0.408499
    62  H    0.218566
    63  H    0.175482
    64  H    0.200326
 Sum of Mulliken atomic charges =   0.00000
 Mulliken charges with hydrogens summed into heavy atoms:
              1
     1  C    0.266573
     2  N   -0.390235
     3  C    0.790533
     4  O   -0.615694
     5  C    0.142961
     6  C    0.072739
     7  C    0.042390
     8  C   -0.010332
     9  C   -0.011757
    10  C    0.008270
    11  C    0.010333
    12  C   -0.015060
    13  C    0.038635
    14  C    0.031091
    15  C    0.090851
    16  C    0.052242
    17  N   -0.397825
    18  C    0.767197
    19  C    0.002417
    20  O   -0.613052
    21  C    0.820057
    22  O   -0.640582
    23  N   -0.409471
    24  C    0.273538
    25  N   -0.462934
    26  C    0.747247
    27  C    0.002479
    28  O   -0.592609
 Sum of Mulliken charges with hydrogens summed into heavy atoms =   0.00000
 Electronic spatial extent (au):  <R**2>=          23436.9588
 Charge=              0.0000 electrons
 Dipole moment (field-independent basis, Debye):
    X=              3.0199    Y=             -1.1652    Z=             -2.5524  Tot=              4.1222
 Quadrupole moment (field-independent basis, Debye-Ang):
   XX=           -245.4367   YY=           -165.3338   ZZ=           -163.8484
   XY=             -9.7402   XZ=             33.4781   YZ=              8.8893
 Traceless Quadrupole moment (field-independent basis, Debye-Ang):
   XX=            -53.8970   YY=             26.2058   ZZ=             27.6912
   XY=             -9.7402   XZ=             33.4781   YZ=              8.8893
 Octapole moment (field-independent basis, Debye-Ang**2):
  XXX=            108.4012  YYY=             42.2467  ZZZ=            -12.1295  XYY=             49.0599
  XXY=           -107.2208  XXZ=           -176.4304  XZZ=             40.7100  YZZ=              9.8764
  YYZ=             -5.3542  XYZ=             39.7835
 Hexadecapole moment (field-independent basis, Debye-Ang**3):
 XXXX=         -31759.5947 YYYY=          -2347.4256 ZZZZ=          -1412.2569 XXXY=            -52.6444
 XXXZ=           1125.6650 YYYX=            100.7715 YYYZ=             11.7283 ZZZX=             57.1527
 ZZZY=             26.3154 XXYY=          -4828.0786 XXZZ=          -4448.1575 YYZZ=           -631.8820
 XXYZ=            384.2250 YYXZ=            105.9680 ZZXY=            -67.1657
 N-N= 2.653758938408D+03 E-N=-8.338660641473D+03  KE= 1.294079289302D+03
 1\1\GINC-MOSURA\SP\RHF\6-31G(d)\C20H36N4O4\MARIE\05-Dec-2019\0\\#SP HF
 /6-31G* Geom=(ModRedundant)\\paramfit run\\0,1\C,0,0.,0.,0.\N,0,1.4481
 87,0.,0.\C,0,2.1232,0.47592,1.072365\O,0,1.590179,0.696732,2.124447\C,
 0,3.650505,0.594143,0.921539\C,0,4.198902,1.549248,1.986845\C,0,4.3077
 51,-0.809116,1.023981\C,0,5.312314,-1.244239,-0.058217\C,0,6.770318,-0
 .76426,0.084897\C,0,7.420619,-1.154701,1.391397\C,0,8.230095,-2.177168
 ,1.615154\C,0,8.703704,-3.208332,0.619088\C,0,10.141757,-2.989248,0.11
 5529\C,0,11.179761,-3.046112,1.244347\C,0,12.680668,-3.018664,0.85554\
 C,0,13.498182,-3.022892,2.157501\N,0,12.983292,-4.219535,0.088821\C,0,
 14.196907,-4.396177,-0.510338\C,0,14.236003,-5.478994,-1.564275\O,0,15
 .163991,-3.745341,-0.226958\C,0,12.931933,-1.790761,-0.048807\O,0,12.7
 08324,-1.8507,-1.227932\N,0,13.306822,-0.641199,0.552813\C,0,13.607726
 ,0.532963,-0.240283\N,0,3.997412,1.070275,-0.425452\C,0,3.587019,2.267
 163,-0.934086\C,0,4.328148,2.727659,-2.172145\O,0,2.697134,2.905425,-0
 .447397\H,0,-0.403259,1.006147,0.\H,0,-0.36496,-0.516002,0.875939\H,0,
 -0.345658,-0.522086,-0.883346\H,0,1.904244,0.070913,-0.879357\H,0,3.93
 2135,1.22176,2.980082\H,0,5.28092,1.595925,1.9075\H,0,3.792711,2.54059
 4,1.848395\H,0,3.484972,-1.52027,1.001239\H,0,4.764918,-0.904351,2.003
 884\H,0,5.324311,-2.330223,-0.047522\H,0,4.948505,-0.956801,-1.039236\
 H,0,6.819881,0.311028,-0.027636\H,0,7.326837,-1.178248,-0.748611\H,0,7
 .191777,-0.513551,2.227263\H,0,8.605513,-2.298225,2.61923\H,0,8.043737
 ,-3.232453,-0.239591\H,0,8.635944,-4.192441,1.081183\H,0,10.347283,-3.
 745579,-0.636864\H,0,10.200432,-2.037274,-0.395482\H,0,11.028035,-3.95
 0858,1.829109\H,0,11.008904,-2.211483,1.914087\H,0,13.332338,-3.964295
 ,2.668224\H,0,13.177697,-2.230083,2.825426\H,0,14.556071,-2.926221,1.9
 64459\H,0,12.215059,-4.612982,-0.40487\H,0,15.257402,-5.798398,-1.7049
 39\H,0,13.868508,-5.065611,-2.498719\H,0,13.617547,-6.329553,-1.29886\
 H,0,13.705967,-0.690945,1.460292\H,0,13.766298,1.369568,0.427451\H,0,1
 2.776131,0.755494,-0.89263\H,0,14.493692,0.390471,-0.850621\H,0,4.8281
 2,0.684785,-0.816437\H,0,3.710173,3.434604,-2.706288\H,0,4.588171,1.90
 2533,-2.825678\H,0,5.244771,3.226201,-1.873716\\Version=EM64L-G09RevA.
 02\State=1-A\HF=-1295.6061629\RMSD=6.926e-09\Dipole=0.8286371,-1.13011
 67,-0.8163333\Quadrupole=-30.2661191,14.9847472,15.2813719,21.8416675,
 27.1507726,-4.3522218\PG=C01 [X(C20H36N4O4)]\\@


 THE WISE MAN HAS THE POWER TO REASON AWAY
 WHAT A FOOL BELIEVES.
                     - DOOBIE BROTHERS
 Job cpu time:  0 days  0 hours  5 minutes  4.8 seconds.
 File lengths (MBytes):  RWF=    132 Int=      0 D2E=      0 Chk=     10 Scr=      1
 Normal termination of Gaussian 09 at Thu Dec  5 16:36:09 2019.
