 Entering Gaussian System, Link 0=g09
 Input=CHI1_-140.gau
 Output=CHI1_-140.log
 Initial command:
 /home/marie/Utilities//g09/l1.exe /tmp/g09/Gau-3508.inp -scrdir=/tmp/g09/
 Entering Link 1 = /home/marie/Utilities//g09/l1.exe PID=      3510.
  
 Copyright (c) 1988,1990,1992,1993,1995,1998,2003,2009, Gaussian, Inc.
                  All Rights Reserved.
  
 This is part of the Gaussian(R) 09 program.  It is based on
 the Gaussian(R) 03 system (copyright 2003, Gaussian, Inc.),
 the Gaussian(R) 98 system (copyright 1998, Gaussian, Inc.),
 the Gaussian(R) 94 system (copyright 1995, Gaussian, Inc.),
 the Gaussian 92(TM) system (copyright 1992, Gaussian, Inc.),
 the Gaussian 90(TM) system (copyright 1990, Gaussian, Inc.),
 the Gaussian 88(TM) system (copyright 1988, Gaussian, Inc.),
 the Gaussian 86(TM) system (copyright 1986, Carnegie Mellon
 University), and the Gaussian 82(TM) system (copyright 1983,
 Carnegie Mellon University). Gaussian is a federally registered
 trademark of Gaussian, Inc.
  
 This software contains proprietary and confidential information,
 including trade secrets, belonging to Gaussian, Inc.
  
 This software is provided under written license and may be
 used, copied, transmitted, or stored only in accord with that
 written license.
  
 The following legend is applicable only to US Government
 contracts under FAR:
  
                    RESTRICTED RIGHTS LEGEND
  
 Use, reproduction and disclosure by the US Government is
 subject to restrictions as set forth in subparagraphs (a)
 and (c) of the Commercial Computer Software - Restricted
 Rights clause in FAR 52.227-19.
  
 Gaussian, Inc.
 340 Quinnipiac St., Bldg. 40, Wallingford CT 06492
  
  
 ---------------------------------------------------------------
 Warning -- This program may not be used in any manner that
 competes with the business of Gaussian, Inc. or will provide
 assistance to any competitor of Gaussian, Inc.  The licensee
 of this program is prohibited from giving any competitor of
 Gaussian, Inc. access to this program.  By using this program,
 the user acknowledges that Gaussian, Inc. is engaged in the
 business of creating and licensing software in the field of
 computational chemistry and represents and warrants to the
 licensee that it is not a competitor of Gaussian, Inc. and that
 it will not use this program in any manner prohibited above.
 ---------------------------------------------------------------
  

 Cite this work as:
 Gaussian 09, Revision A.02,
 M. J. Frisch, G. W. Trucks, H. B. Schlegel, G. E. Scuseria, 
 M. A. Robb, J. R. Cheeseman, G. Scalmani, V. Barone, B. Mennucci, 
 G. A. Petersson, H. Nakatsuji, M. Caricato, X. Li, H. P. Hratchian, 
 A. F. Izmaylov, J. Bloino, G. Zheng, J. L. Sonnenberg, M. Hada, 
 M. Ehara, K. Toyota, R. Fukuda, J. Hasegawa, M. Ishida, T. Nakajima, 
 Y. Honda, O. Kitao, H. Nakai, T. Vreven, J. A. Montgomery, Jr., 
 J. E. Peralta, F. Ogliaro, M. Bearpark, J. J. Heyd, E. Brothers, 
 K. N. Kudin, V. N. Staroverov, R. Kobayashi, J. Normand, 
 K. Raghavachari, A. Rendell, J. C. Burant, S. S. Iyengar, J. Tomasi, 
 M. Cossi, N. Rega, J. M. Millam, M. Klene, J. E. Knox, J. B. Cross, 
 V. Bakken, C. Adamo, J. Jaramillo, R. Gomperts, R. E. Stratmann, 
 O. Yazyev, A. J. Austin, R. Cammi, C. Pomelli, J. W. Ochterski, 
 R. L. Martin, K. Morokuma, V. G. Zakrzewski, G. A. Voth, 
 P. Salvador, J. J. Dannenberg, S. Dapprich, A. D. Daniels, 
 O. Farkas, J. B. Foresman, J. V. Ortiz, J. Cioslowski, 
 and D. J. Fox, Gaussian, Inc., Wallingford CT, 2009.
 
 ******************************************
 Gaussian 09:  EM64L-G09RevA.02 11-Jun-2009
                 5-Dec-2019 
 ******************************************
 %chk=CHI1_-140
 %NoSave
 ---------------------------------
 #SP HF/6-31G* Geom=(ModRedundant)
 ---------------------------------
 1/18=120,38=1/1;
 2/12=2,17=6,18=5,40=1/2;
 3/5=1,6=6,7=1,11=9,16=1,25=1,30=1/1,2,3;
 4//1;
 5/5=2,38=5/2;
 6/7=2,8=2,9=2,10=2,28=1/1;
 99/5=1,9=1/99;
 ------------
 paramfit run
 ------------
 Symbolic Z-matrix:
 Charge =  0 Multiplicity = 1
 C-CT--0.3208          0.        0.        0. 
 N-N--0.5622           1.44819   0.        0. 
 C-C-0.8053            2.1232    0.47592   1.07237 
 O-O--0.6151           1.59018   0.69673   2.12445 
 C-CX-0.0839           3.65051   0.59414   0.92154 
 C-CU--0.3230          4.1989    1.54925   1.98685 
 C-CU--0.0657          4.30775  -0.80912   1.02398 
 C-CU--0.0109          5.63048  -0.95979   1.79684 
 C-CU-0.0816           5.5511   -1.09839   3.33018 
 C-CM--0.2354          4.69856  -2.25382   3.79967 
 C-CM--0.2653          5.10609  -3.45291   4.18292 
 C-CU-0.1214           6.52555  -3.96383   4.24481 
 C-CU--0.0354          7.12587  -3.9969    5.66188 
 C-CU--0.0984          6.34879  -4.91686   6.61306 
 C-CU-0.1300           6.94581  -5.18171   8.0195 
 C-CU--0.3561          5.95402  -6.07252   8.78518 
 N-N--0.7186           8.20991  -5.88782   7.86141 
 C-C-0.8537            9.03119  -6.12683   8.9251 
 C-CT--0.3868          10.44666  -6.51447   8.56319 
 O-O--0.6323           8.66442  -6.03829   10.06386 
 C-C-0.7903            7.23216  -3.82196   8.69611 
 O-O--0.6136           8.25154  -3.23081   8.46088 
 N-N--0.5650           6.25701  -3.29244   9.46596 
 C-CT--0.3231          6.47892  -2.04599   10.16976 
 N-N--0.7191           3.99741   1.07028  -0.42545 
 C-C-0.8539            3.58702   2.26716  -0.93409 
 C-CT--0.3903          4.32815   2.72766  -2.17214 
 O-O--0.6290           2.69713   2.90543  -0.4474 
 H-H1-0.1459          -0.40326   1.00615   0. 
 H-H1-0.1459          -0.36496  -0.516     0.87594 
 H-H1-0.1459          -0.34566  -0.52209  -0.88335 
 H-H-0.3572            1.90424   0.07091  -0.87936 
 H-HC-0.0997           3.93214   1.22176   2.98008 
 H-HC-0.0997           5.28092   1.59593   1.9075 
 H-HC-0.0997           3.79271   2.54059   1.8484 
 H-HC-0.0347           4.49917  -1.11843  -0.00116 
 H-HC-0.0347           3.57424  -1.50469   1.41949 
 H-HC-0.0243           6.11022  -1.85549   1.41318 
 H-HC-0.0243           6.29551  -0.13629   1.55819 
 H-HC-0.0171           5.17636  -0.18174   3.76685 
 H-HC-0.0171           6.56632  -1.2101    3.69443 
 H-HA-0.1313           3.6381   -2.06147   3.82327 
 H-HA-0.1359           4.34835  -4.15537   4.49298 
 H-HC-0.0092           7.1701   -3.36006   3.61752 
 H-HC-0.0092           6.55004  -4.96905   3.82586 
 H-HC-0.0318           8.1607   -4.31622   5.57505 
 H-HC-0.0318           7.157    -2.99142   6.06047 
 H-HC-0.0435           6.21523  -5.88994   6.14529 
 H-HC-0.0435           5.35745  -4.50467   6.7603 
 H-HC-0.1066           5.8992   -7.03531   8.2906 
 H-HC-0.1066           4.95621  -5.64624   8.77782 
 H-HC-0.1066           6.26921  -6.23516   9.80495 
 H-H-0.3529            8.68105  -5.72759   7.00056 
 H-HC-0.1047           10.89602  -7.0306    9.39791 
 H-HC-0.1047           11.01376  -5.60945   8.3671 
 H-HC-0.1047           10.48485  -7.14141   7.67896 
 H-H-0.3615            5.55613  -3.89754   9.82364 
 H-H1-0.1469           5.54746  -1.73547   10.62459 
 H-H1-0.1469           6.80144  -1.28614   9.47317 
 H-H1-0.1469           7.23599  -2.14803   10.9406 
 H-H-0.3570            4.82812   0.68479  -0.81644 
 H-HC-0.1060           3.71017   3.4346   -2.70629 
 H-HC-0.1060           4.58817   1.90253  -2.82568 
 H-HC-0.1060           5.24477   3.2262   -1.87372 
 
 The following ModRedundant input section has been read:
 D    *    5    7    * F                                                       
 Stoichiometry    C20H36N4O4
 Framework group  C1[X(C20H36N4O4)]
 Deg. of freedom   186
 Full point group                 C1      NOp   1
 Largest Abelian subgroup         C1      NOp   1
 Largest concise Abelian subgroup C1      NOp   1
                         Standard orientation:                         
 ---------------------------------------------------------------------
 Center     Atomic      Atomic             Coordinates (Angstroms)
 Number     Number       Type             X           Y           Z
 ---------------------------------------------------------------------
      1          6    20001001        6.536038    2.322247   -1.949244
      2          7    20001014        5.928566    1.112965   -1.433626
      3          6    20001002        5.108050    1.175017   -0.358911
      4          8    20001024        4.673857    2.211159    0.062551
      5          6    90000001        4.641210   -0.171167    0.223530
      6          6    90000002        4.133247    0.037217    1.654051
      7          6    90000002        3.545533   -0.794547   -0.683383
      8          6    90000002        2.341474   -1.493895   -0.027038
      9          6    90000002        1.171822   -0.608877    0.447613
     10          6    20001004        0.570583    0.250508   -0.639699
     11          6    20001004       -0.518846    0.006867   -1.350008
     12          6    90000002       -1.430940   -1.192238   -1.250077
     13          6    90000002       -2.744080   -0.928065   -0.491500
     14          6    90000002       -3.606836    0.151368   -1.158878
     15          6    90000002       -5.033734    0.391039   -0.601055
     16          6    90000002       -5.654316    1.551870   -1.395285
     17          7    20001014       -5.822181   -0.815735   -0.809813
     18          6    20001002       -7.076978   -0.946815   -0.288894
     19          6    20001001       -7.609830   -2.360995   -0.257795
     20          8    20001024       -7.714935   -0.014754    0.115355
     21          6    20001002       -4.930784    0.644963    0.920014
     22          8    20001024       -4.871476   -0.279011    1.685966
     23          7    20001014       -4.807835    1.925859    1.330098
     24          6    20001001       -4.757997    2.237823    2.743744
     25          7    20001014        5.740472   -1.147213    0.203830
     26          6    20001002        6.922298   -0.969389    0.860593
     27          6    20001001        7.767663   -2.216996    1.012104
     28          8    20001024        7.275738    0.096823    1.278219
     29          1    20001035        7.239023    2.752275   -1.245088
     30          1    20001035        5.770159    3.054204   -2.159938
     31          1    20001035        7.054678    2.083404   -2.869201
     32          1    20001029        6.422599    0.261815   -1.566891
     33          1    20001034        3.339800    0.768275    1.684557
     34          1    20001034        3.762581   -0.905005    2.046558
     35          1    20001034        4.931588    0.393236    2.288739
     36          1    20001034        4.056216   -1.539035   -1.290146
     37          1    20001034        3.192848   -0.032047   -1.370760
     38          1    20001034        1.947604   -2.185620   -0.765957
     39          1    20001034        2.675231   -2.102279    0.807137
     40          1    20001034        1.493717    0.025862    1.263000
     41          1    20001034        0.418399   -1.269429    0.862171
     42          1    20001033        1.100085    1.166652   -0.845663
     43          1    20001033       -0.802089    0.742629   -2.086345
     44          1    20001034       -0.918920   -2.014670   -0.765404
     45          1    20001034       -1.665963   -1.533103   -2.257633
     46          1    20001034       -3.283621   -1.868881   -0.427200
     47          1    20001034       -2.517256   -0.644661    0.527844
     48          1    20001034       -3.722545   -0.081021   -2.215353
     49          1    20001034       -3.080755    1.097249   -1.105038
     50          1    20001034       -5.777855    1.240143   -2.425889
     51          1    20001034       -5.004180    2.420607   -1.394361
     52          1    20001034       -6.623964    1.826650   -1.007963
     53          1    20001029       -5.300714   -1.661160   -0.854971
     54          1    20001034       -8.686995   -2.331386   -0.195319
     55          1    20001034       -7.223102   -2.856971    0.627402
     56          1    20001034       -7.307175   -2.930568   -1.129785
     57          1    20001029       -5.098344    2.648987    0.715280
     58          1    20001035       -4.537537    3.291088    2.857549
     59          1    20001035       -3.977042    1.661187    3.217270
     60          1    20001035       -5.697482    2.014241    3.238854
     61          1    20001029        5.475475   -2.088668    0.016787
     62          1    20001034        8.795404   -1.925099    1.171845
     63          1    20001034        7.702180   -2.865065    0.145346
     64          1    20001034        7.427863   -2.774329    1.879119
 ---------------------------------------------------------------------
 Rotational constants (GHZ):      0.4064180      0.0442781      0.0436493
 Standard basis: 6-31G(d) (6D, 7F)
 There are   492 symmetry adapted basis functions of A   symmetry.
 Integral buffers will be    131072 words long.
 Raffenetti 1 integral format.
 Two-electron integral symmetry is turned on.
   492 basis functions,   928 primitive gaussians,   492 cartesian basis functions
   108 alpha electrons      108 beta electrons
       nuclear repulsion energy      2641.1197294990 Hartrees.
 NAtoms=   64 NActive=   64 NUniq=   64 SFac= 7.50D-01 NAtFMM=   80 NAOKFM=F Big=T
 One-electron integrals computed using PRISM.
 NBasis=   492 RedAO= T  NBF=   492
 NBsUse=   492 1.00D-06 NBFU=   492
 Harris functional with IExCor=  205 diagonalized for initial guess.
 ExpMin= 1.61D-01 ExpMax= 5.48D+03 ExpMxC= 8.25D+02 IAcc=1 IRadAn=         1 AccDes= 0.00D+00
 HarFok:  IExCor=  205 AccDes= 0.00D+00 IRadAn=         1 IDoV= 1
 ScaDFX=  1.000000  1.000000  1.000000  1.000000
 FoFCou: FMM=F IPFlag=           0 FMFlag=      100000 FMFlg1=           1
         NFxFlg=           0 DoJE=T BraDBF=F KetDBF=T FulRan=T
         Omega=  0.000000  0.000000  1.000000  0.000000  0.000000 ICntrl=     500 IOpCl=  0
         NMat0=    1 NMatS0=    1 NMatT0=    0 NMatD0=    1 NMtDS0=    0 NMtDT0=    0
         I1Cent=           4 NGrid=           0.
 Petite list used in FoFCou.
 Initial guess orbital symmetries:
       Occupied  (A) (A) (A) (A) (A) (A) (A) (A) (A) (A) (A) (A)
                 (A) (A) (A) (A) (A) (A) (A) (A) (A) (A) (A) (A)
                 (A) (A) (A) (A) (A) (A) (A) (A) (A) (A) (A) (A)
                 (A) (A) (A) (A) (A) (A) (A) (A) (A) (A) (A) (A)
                 (A) (A) (A) (A) (A) (A) (A) (A) (A) (A) (A) (A)
                 (A) (A) (A) (A) (A) (A) (A) (A) (A) (A) (A) (A)
                 (A) (A) (A) (A) (A) (A) (A) (A) (A) (A) (A) (A)
                 (A) (A) (A) (A) (A) (A) (A) (A) (A) (A) (A) (A)
                 (A) (A) (A) (A) (A) (A) (A) (A) (A) (A) (A) (A)
       Virtual   (A) (A) (A) (A) (A) (A) (A) (A) (A) (A) (A) (A)
                 (A) (A) (A) (A) (A) (A) (A) (A) (A) (A) (A) (A)
                 (A) (A) (A) (A) (A) (A) (A) (A) (A) (A) (A) (A)
                 (A) (A) (A) (A) (A) (A) (A) (A) (A) (A) (A) (A)
                 (A) (A) (A) (A) (A) (A) (A) (A) (A) (A) (A) (A)
                 (A) (A) (A) (A) (A) (A) (A) (A) (A) (A) (A) (A)
                 (A) (A) (A) (A) (A) (A) (A) (A) (A) (A) (A) (A)
                 (A) (A) (A) (A) (A) (A) (A) (A) (A) (A) (A) (A)
                 (A) (A) (A) (A) (A) (A) (A) (A) (A) (A) (A) (A)
                 (A) (A) (A) (A) (A) (A) (A) (A) (A) (A) (A) (A)
                 (A) (A) (A) (A) (A) (A) (A) (A) (A) (A) (A) (A)
                 (A) (A) (A) (A) (A) (A) (A) (A) (A) (A) (A) (A)
                 (A) (A) (A) (A) (A) (A) (A) (A) (A) (A) (A) (A)
                 (A) (A) (A) (A) (A) (A) (A) (A) (A) (A) (A) (A)
                 (A) (A) (A) (A) (A) (A) (A) (A) (A) (A) (A) (A)
                 (A) (A) (A) (A) (A) (A) (A) (A) (A) (A) (A) (A)
                 (A) (A) (A) (A) (A) (A) (A) (A) (A) (A) (A) (A)
                 (A) (A) (A) (A) (A) (A) (A) (A) (A) (A) (A) (A)
                 (A) (A) (A) (A) (A) (A) (A) (A) (A) (A) (A) (A)
                 (A) (A) (A) (A) (A) (A) (A) (A) (A) (A) (A) (A)
                 (A) (A) (A) (A) (A) (A) (A) (A) (A) (A) (A) (A)
                 (A) (A) (A) (A) (A) (A) (A) (A) (A) (A) (A) (A)
                 (A) (A) (A) (A) (A) (A) (A) (A) (A) (A) (A) (A)
                 (A) (A) (A) (A) (A) (A) (A) (A) (A) (A) (A) (A)
                 (A) (A) (A) (A) (A) (A) (A) (A) (A) (A) (A) (A)
                 (A) (A) (A) (A) (A) (A) (A) (A) (A) (A) (A) (A)
                 (A) (A) (A) (A) (A) (A) (A) (A) (A) (A) (A) (A)
                 (A) (A) (A) (A) (A) (A) (A) (A) (A) (A) (A) (A)
                 (A) (A) (A) (A) (A) (A) (A) (A) (A) (A) (A) (A)
                 (A) (A) (A) (A) (A) (A) (A) (A) (A) (A) (A) (A)
                 (A) (A) (A) (A) (A) (A) (A) (A) (A) (A) (A) (A)
                 (A) (A) (A) (A) (A) (A) (A) (A) (A) (A) (A) (A)
 The electronic state of the initial guess is 1-A.
 Requested convergence on RMS density matrix=1.00D-08 within 128 cycles.
 Requested convergence on MAX density matrix=1.00D-06.
 Requested convergence on             energy=1.00D-06.
 No special actions if energy rises.
 Integral accuracy reduced to 1.0D-05 until final iterations.
 Initial convergence to 1.0D-05 achieved.  Increase integral accuracy.
 SCF Done:  E(RHF) =  -1295.61114973     A.U. after   14 cycles
             Convg  =    0.6276D-08             -V/T =  2.0012

 **********************************************************************

            Population analysis using the SCF density.

 **********************************************************************

 Orbital symmetries:
       Occupied  (A) (A) (A) (A) (A) (A) (A) (A) (A) (A) (A) (A)
                 (A) (A) (A) (A) (A) (A) (A) (A) (A) (A) (A) (A)
                 (A) (A) (A) (A) (A) (A) (A) (A) (A) (A) (A) (A)
                 (A) (A) (A) (A) (A) (A) (A) (A) (A) (A) (A) (A)
                 (A) (A) (A) (A) (A) (A) (A) (A) (A) (A) (A) (A)
                 (A) (A) (A) (A) (A) (A) (A) (A) (A) (A) (A) (A)
                 (A) (A) (A) (A) (A) (A) (A) (A) (A) (A) (A) (A)
                 (A) (A) (A) (A) (A) (A) (A) (A) (A) (A) (A) (A)
                 (A) (A) (A) (A) (A) (A) (A) (A) (A) (A) (A) (A)
       Virtual   (A) (A) (A) (A) (A) (A) (A) (A) (A) (A) (A) (A)
                 (A) (A) (A) (A) (A) (A) (A) (A) (A) (A) (A) (A)
                 (A) (A) (A) (A) (A) (A) (A) (A) (A) (A) (A) (A)
                 (A) (A) (A) (A) (A) (A) (A) (A) (A) (A) (A) (A)
                 (A) (A) (A) (A) (A) (A) (A) (A) (A) (A) (A) (A)
                 (A) (A) (A) (A) (A) (A) (A) (A) (A) (A) (A) (A)
                 (A) (A) (A) (A) (A) (A) (A) (A) (A) (A) (A) (A)
                 (A) (A) (A) (A) (A) (A) (A) (A) (A) (A) (A) (A)
                 (A) (A) (A) (A) (A) (A) (A) (A) (A) (A) (A) (A)
                 (A) (A) (A) (A) (A) (A) (A) (A) (A) (A) (A) (A)
                 (A) (A) (A) (A) (A) (A) (A) (A) (A) (A) (A) (A)
                 (A) (A) (A) (A) (A) (A) (A) (A) (A) (A) (A) (A)
                 (A) (A) (A) (A) (A) (A) (A) (A) (A) (A) (A) (A)
                 (A) (A) (A) (A) (A) (A) (A) (A) (A) (A) (A) (A)
                 (A) (A) (A) (A) (A) (A) (A) (A) (A) (A) (A) (A)
                 (A) (A) (A) (A) (A) (A) (A) (A) (A) (A) (A) (A)
                 (A) (A) (A) (A) (A) (A) (A) (A) (A) (A) (A) (A)
                 (A) (A) (A) (A) (A) (A) (A) (A) (A) (A) (A) (A)
                 (A) (A) (A) (A) (A) (A) (A) (A) (A) (A) (A) (A)
                 (A) (A) (A) (A) (A) (A) (A) (A) (A) (A) (A) (A)
                 (A) (A) (A) (A) (A) (A) (A) (A) (A) (A) (A) (A)
                 (A) (A) (A) (A) (A) (A) (A) (A) (A) (A) (A) (A)
                 (A) (A) (A) (A) (A) (A) (A) (A) (A) (A) (A) (A)
                 (A) (A) (A) (A) (A) (A) (A) (A) (A) (A) (A) (A)
                 (A) (A) (A) (A) (A) (A) (A) (A) (A) (A) (A) (A)
                 (A) (A) (A) (A) (A) (A) (A) (A) (A) (A) (A) (A)
                 (A) (A) (A) (A) (A) (A) (A) (A) (A) (A) (A) (A)
                 (A) (A) (A) (A) (A) (A) (A) (A) (A) (A) (A) (A)
                 (A) (A) (A) (A) (A) (A) (A) (A) (A) (A) (A) (A)
                 (A) (A) (A) (A) (A) (A) (A) (A) (A) (A) (A) (A)
                 (A) (A) (A) (A) (A) (A) (A) (A) (A) (A) (A) (A)
                 (A) (A) (A) (A) (A) (A) (A) (A) (A) (A) (A) (A)
 The electronic state is 1-A.
 Alpha  occ. eigenvalues --  -20.53557 -20.52125 -20.51691 -20.51602 -15.59478
 Alpha  occ. eigenvalues --  -15.57961 -15.57609 -15.57188 -11.35806 -11.34336
 Alpha  occ. eigenvalues --  -11.33767 -11.33633 -11.28875 -11.28645 -11.25044
 Alpha  occ. eigenvalues --  -11.24633 -11.24273 -11.23821 -11.23506 -11.23397
 Alpha  occ. eigenvalues --  -11.22821 -11.22610 -11.22575 -11.22571 -11.22539
 Alpha  occ. eigenvalues --  -11.22352 -11.21824 -11.20699  -1.40472  -1.39454
 Alpha  occ. eigenvalues --   -1.38399  -1.38179  -1.25366  -1.23634  -1.22677
 Alpha  occ. eigenvalues --   -1.21776  -1.11154  -1.09471  -1.07278  -1.04373
 Alpha  occ. eigenvalues --   -1.01317  -0.99343  -0.98827  -0.95644  -0.95214
 Alpha  occ. eigenvalues --   -0.94720  -0.92562  -0.87401  -0.85727  -0.82514
 Alpha  occ. eigenvalues --   -0.81109  -0.79961  -0.79525  -0.76946  -0.76859
 Alpha  occ. eigenvalues --   -0.72239  -0.71405  -0.70664  -0.69201  -0.68159
 Alpha  occ. eigenvalues --   -0.67082  -0.65563  -0.64638  -0.63911  -0.63584
 Alpha  occ. eigenvalues --   -0.62495  -0.62178  -0.62100  -0.61547  -0.61391
 Alpha  occ. eigenvalues --   -0.61076  -0.60066  -0.59423  -0.58983  -0.58745
 Alpha  occ. eigenvalues --   -0.58130  -0.57603  -0.56551  -0.56211  -0.56030
 Alpha  occ. eigenvalues --   -0.55674  -0.55139  -0.54831  -0.54573  -0.54181
 Alpha  occ. eigenvalues --   -0.53261  -0.53163  -0.52402  -0.52267  -0.51602
 Alpha  occ. eigenvalues --   -0.51128  -0.50629  -0.49895  -0.49048  -0.48736
 Alpha  occ. eigenvalues --   -0.48282  -0.47193  -0.46546  -0.44882  -0.42902
 Alpha  occ. eigenvalues --   -0.41969  -0.41597  -0.41142  -0.38954  -0.38915
 Alpha  occ. eigenvalues --   -0.38363  -0.38025  -0.34846
 Alpha virt. eigenvalues --    0.16838   0.18808   0.19573   0.19841   0.21226
 Alpha virt. eigenvalues --    0.21514   0.21919   0.22956   0.23501   0.24365
 Alpha virt. eigenvalues --    0.25215   0.25497   0.25996   0.26274   0.27335
 Alpha virt. eigenvalues --    0.27562   0.27998   0.28610   0.28874   0.29252
 Alpha virt. eigenvalues --    0.29603   0.30260   0.30597   0.31091   0.31463
 Alpha virt. eigenvalues --    0.32143   0.32587   0.32794   0.33233   0.33756
 Alpha virt. eigenvalues --    0.34175   0.34512   0.34615   0.34861   0.35177
 Alpha virt. eigenvalues --    0.35394   0.35861   0.36300   0.36780   0.37366
 Alpha virt. eigenvalues --    0.37921   0.38394   0.39157   0.39563   0.39835
 Alpha virt. eigenvalues --    0.40545   0.41425   0.42169   0.42701   0.43995
 Alpha virt. eigenvalues --    0.44695   0.45010   0.45427   0.46987   0.47540
 Alpha virt. eigenvalues --    0.48799   0.49052   0.51120   0.52059   0.52289
 Alpha virt. eigenvalues --    0.52942   0.55683   0.57554   0.57776   0.59574
 Alpha virt. eigenvalues --    0.62232   0.63223   0.64436   0.69099   0.69963
 Alpha virt. eigenvalues --    0.70978   0.71390   0.71714   0.72618   0.72934
 Alpha virt. eigenvalues --    0.73906   0.74696   0.75609   0.75763   0.76179
 Alpha virt. eigenvalues --    0.76563   0.76888   0.77648   0.78424   0.78675
 Alpha virt. eigenvalues --    0.79028   0.79486   0.80632   0.82261   0.83170
 Alpha virt. eigenvalues --    0.83320   0.83965   0.84563   0.85436   0.87132
 Alpha virt. eigenvalues --    0.87369   0.88007   0.88259   0.90120   0.91020
 Alpha virt. eigenvalues --    0.91380   0.92214   0.92325   0.92746   0.93677
 Alpha virt. eigenvalues --    0.93913   0.94485   0.96244   0.96878   0.97328
 Alpha virt. eigenvalues --    0.98127   0.98360   0.99585   1.00316   1.01122
 Alpha virt. eigenvalues --    1.01404   1.02025   1.02415   1.02856   1.03471
 Alpha virt. eigenvalues --    1.03910   1.04784   1.05255   1.06740   1.07034
 Alpha virt. eigenvalues --    1.07476   1.08097   1.09469   1.10087   1.10366
 Alpha virt. eigenvalues --    1.12033   1.12595   1.13012   1.13175   1.14247
 Alpha virt. eigenvalues --    1.14383   1.14606   1.14863   1.15121   1.15568
 Alpha virt. eigenvalues --    1.15722   1.16440   1.16601   1.17103   1.17567
 Alpha virt. eigenvalues --    1.18068   1.18358   1.18555   1.18570   1.19448
 Alpha virt. eigenvalues --    1.19666   1.19888   1.20388   1.20834   1.21397
 Alpha virt. eigenvalues --    1.21690   1.21924   1.22297   1.22818   1.22862
 Alpha virt. eigenvalues --    1.23238   1.23630   1.23799   1.25441   1.25579
 Alpha virt. eigenvalues --    1.25919   1.26457   1.27053   1.27576   1.28425
 Alpha virt. eigenvalues --    1.28962   1.29654   1.30124   1.31139   1.31387
 Alpha virt. eigenvalues --    1.32056   1.33211   1.35661   1.36939   1.37720
 Alpha virt. eigenvalues --    1.38607   1.39291   1.40174   1.40746   1.41950
 Alpha virt. eigenvalues --    1.42567   1.43986   1.45985   1.47190   1.48392
 Alpha virt. eigenvalues --    1.50339   1.51047   1.52365   1.54123   1.54700
 Alpha virt. eigenvalues --    1.56674   1.57016   1.58251   1.60347   1.61139
 Alpha virt. eigenvalues --    1.61639   1.62338   1.64333   1.67074   1.68613
 Alpha virt. eigenvalues --    1.69791   1.71020   1.71842   1.72452   1.73282
 Alpha virt. eigenvalues --    1.74355   1.75236   1.76354   1.78509   1.79785
 Alpha virt. eigenvalues --    1.80459   1.81530   1.82792   1.86086   1.88603
 Alpha virt. eigenvalues --    1.89336   1.90713   1.91795   1.92488   1.93570
 Alpha virt. eigenvalues --    1.95869   1.96754   1.98465   2.00866   2.02949
 Alpha virt. eigenvalues --    2.04269   2.04706   2.06446   2.06926   2.07639
 Alpha virt. eigenvalues --    2.08751   2.10098   2.10941   2.11972   2.12107
 Alpha virt. eigenvalues --    2.13071   2.13709   2.14410   2.14979   2.16184
 Alpha virt. eigenvalues --    2.16384   2.17361   2.17972   2.19509   2.19681
 Alpha virt. eigenvalues --    2.20737   2.20852   2.22267   2.22955   2.24004
 Alpha virt. eigenvalues --    2.24908   2.25507   2.25888   2.25988   2.27375
 Alpha virt. eigenvalues --    2.27776   2.29364   2.30349   2.30837   2.32666
 Alpha virt. eigenvalues --    2.32953   2.34015   2.34120   2.35103   2.35403
 Alpha virt. eigenvalues --    2.36760   2.37088   2.37193   2.38704   2.38938
 Alpha virt. eigenvalues --    2.39510   2.40693   2.41501   2.41962   2.43476
 Alpha virt. eigenvalues --    2.43711   2.46748   2.47929   2.49835   2.50606
 Alpha virt. eigenvalues --    2.52142   2.53293   2.53791   2.55698   2.56180
 Alpha virt. eigenvalues --    2.56931   2.57282   2.58179   2.59755   2.60303
 Alpha virt. eigenvalues --    2.62152   2.63211   2.64416   2.64647   2.65180
 Alpha virt. eigenvalues --    2.66608   2.69114   2.70039   2.70919   2.72039
 Alpha virt. eigenvalues --    2.72617   2.73657   2.74282   2.74590   2.75923
 Alpha virt. eigenvalues --    2.76794   2.77741   2.78639   2.79293   2.79903
 Alpha virt. eigenvalues --    2.80838   2.82469   2.83521   2.85378   2.86221
 Alpha virt. eigenvalues --    2.86843   2.87938   2.90606   2.91726   2.95589
 Alpha virt. eigenvalues --    2.95806   2.97264   2.98352   2.98560   3.01491
 Alpha virt. eigenvalues --    3.03166   3.05180   3.05326   3.06032   3.08490
 Alpha virt. eigenvalues --    3.10283   3.10952   3.12333   3.13086   3.15047
 Alpha virt. eigenvalues --    3.15689   3.18131   3.21398   3.28571   3.30507
 Alpha virt. eigenvalues --    3.34318   3.34788   3.38435   3.40266   3.40795
 Alpha virt. eigenvalues --    3.42264   3.42616   3.53302   3.55636   3.57511
 Alpha virt. eigenvalues --    3.60064   4.38373   4.40461   4.44372   4.47276
 Alpha virt. eigenvalues --    4.49089   4.51807   4.54222   4.57736   4.58786
 Alpha virt. eigenvalues --    4.62499   4.66095   4.67377   4.67992   4.70133
 Alpha virt. eigenvalues --    4.74349   4.76447   4.78606   4.81654   4.83601
 Alpha virt. eigenvalues --    4.87462   4.89149   4.93822   4.96535   4.98482
 Alpha virt. eigenvalues --    5.02650   5.03351   5.23475   5.25013
          Condensed to atoms (all electrons):
 Mulliken atomic charges:
              1
     1  C   -0.278589
     2  N   -0.779134
     3  C    0.797629
     4  O   -0.620498
     5  C    0.136147
     6  C   -0.484017
     7  C   -0.358192
     8  C   -0.319153
     9  C   -0.352817
    10  C   -0.180602
    11  C   -0.175314
    12  C   -0.354736
    13  C   -0.310293
    14  C   -0.329823
    15  C    0.090739
    16  C   -0.510008
    17  N   -0.787398
    18  C    0.767379
    19  C   -0.595715
    20  O   -0.613459
    21  C    0.820450
    22  O   -0.640657
    23  N   -0.805506
    24  C   -0.275398
    25  N   -0.849389
    26  C    0.743049
    27  C   -0.588856
    28  O   -0.591138
    29  H    0.185321
    30  H    0.197672
    31  H    0.161863
    32  H    0.390040
    33  H    0.199885
    34  H    0.148546
    35  H    0.213397
    36  H    0.164222
    37  H    0.207111
    38  H    0.170845
    39  H    0.160019
    40  H    0.185159
    41  H    0.175608
    42  H    0.191331
    43  H    0.176193
    44  H    0.173792
    45  H    0.162672
    46  H    0.151010
    47  H    0.197841
    48  H    0.174141
    49  H    0.186889
    50  H    0.183958
    51  H    0.149905
    52  H    0.226775
    53  H    0.389292
    54  H    0.211519
    55  H    0.208790
    56  H    0.176316
    57  H    0.396179
    58  H    0.166461
    59  H    0.197937
    60  H    0.184871
    61  H    0.383777
    62  H    0.218506
    63  H    0.176670
    64  H    0.200782
 Sum of Mulliken atomic charges =   0.00000
 Mulliken charges with hydrogens summed into heavy atoms:
              1
     1  C    0.266267
     2  N   -0.389094
     3  C    0.797629
     4  O   -0.620498
     5  C    0.136147
     6  C    0.077811
     7  C    0.013141
     8  C    0.011711
     9  C    0.007950
    10  C    0.010729
    11  C    0.000879
    12  C   -0.018272
    13  C    0.038559
    14  C    0.031208
    15  C    0.090739
    16  C    0.050631
    17  N   -0.398106
    18  C    0.767379
    19  C    0.000910
    20  O   -0.613459
    21  C    0.820450
    22  O   -0.640657
    23  N   -0.409327
    24  C    0.273871
    25  N   -0.465611
    26  C    0.743049
    27  C    0.007102
    28  O   -0.591138
 Sum of Mulliken charges with hydrogens summed into heavy atoms =   0.00000
 Electronic spatial extent (au):  <R**2>=          24107.9335
 Charge=              0.0000 electrons
 Dipole moment (field-independent basis, Debye):
    X=              2.3501    Y=             -5.1076    Z=             -4.1547  Tot=              6.9909
 Quadrupole moment (field-independent basis, Debye-Ang):
   XX=           -196.4539   YY=           -157.9854   ZZ=           -171.8147
   XY=            -30.0931   XZ=             -3.9477   YZ=             -0.3659
 Traceless Quadrupole moment (field-independent basis, Debye-Ang):
   XX=            -21.0359   YY=             17.4326   ZZ=              3.6033
   XY=            -30.0931   XZ=             -3.9477   YZ=             -0.3659
 Octapole moment (field-independent basis, Debye-Ang**2):
  XXX=            323.4160  YYY=            -10.0792  ZZZ=             12.1552  XYY=            -55.9720
  XXY=           -215.7390  XXZ=           -180.3794  XZZ=              8.7402  YZZ=             17.4544
  YYZ=              5.4751  XYZ=            -66.2911
 Hexadecapole moment (field-independent basis, Debye-Ang**3):
 XXXX=         -30081.7132 YYYY=          -2048.0717 ZZZZ=          -1644.8195 XXXY=           -574.9727
 XXXZ=           -505.9051 YYYX=           -143.0476 YYYZ=              2.9761 ZZZX=            -75.7653
 ZZZY=             22.2780 XXYY=          -4323.0350 XXZZ=          -4903.9381 YYZZ=           -585.8771
 XXYZ=           -118.8303 YYXZ=            -68.5364 ZZXY=            -51.4883
 N-N= 2.641119729499D+03 E-N=-8.314157960514D+03  KE= 1.294055478780D+03
 1\1\GINC-MOSURA\SP\RHF\6-31G(d)\C20H36N4O4\MARIE\05-Dec-2019\0\\#SP HF
 /6-31G* Geom=(ModRedundant)\\paramfit run\\0,1\C,0,0.,0.,0.\N,0,1.4481
 87,0.,0.\C,0,2.1232,0.47592,1.072365\O,0,1.590179,0.696732,2.124447\C,
 0,3.650505,0.594143,0.921539\C,0,4.198902,1.549248,1.986845\C,0,4.3077
 51,-0.809116,1.023981\C,0,5.630483,-0.959793,1.796839\C,0,5.551097,-1.
 098391,3.330177\C,0,4.698555,-2.253824,3.799673\C,0,5.106085,-3.452907
 ,4.182915\C,0,6.525552,-3.963825,4.244812\C,0,7.125869,-3.996899,5.661
 883\C,0,6.348794,-4.916862,6.61306\C,0,6.945812,-5.18171,8.019499\C,0,
 5.954018,-6.072516,8.785175\N,0,8.209909,-5.887824,7.861406\C,0,9.0311
 86,-6.126832,8.925096\C,0,10.446659,-6.514474,8.563193\O,0,8.664421,-6
 .038285,10.063861\C,0,7.23216,-3.821959,8.696114\O,0,8.251542,-3.23081
 1,8.460885\N,0,6.257006,-3.292437,9.465959\C,0,6.478921,-2.045993,10.1
 69758\N,0,3.997412,1.070275,-0.425452\C,0,3.587019,2.267163,-0.934086\
 C,0,4.328148,2.727659,-2.172145\O,0,2.697134,2.905425,-0.447397\H,0,-0
 .403259,1.006147,0.\H,0,-0.36496,-0.516002,0.875939\H,0,-0.345658,-0.5
 22086,-0.883346\H,0,1.904244,0.070913,-0.879357\H,0,3.932135,1.22176,2
 .980082\H,0,5.28092,1.595925,1.9075\H,0,3.792711,2.540594,1.848395\H,0
 ,4.499171,-1.118427,-0.001156\H,0,3.574244,-1.50469,1.419487\H,0,6.110
 225,-1.855488,1.413177\H,0,6.295505,-0.136286,1.558185\H,0,5.176358,-0
 .18174,3.766853\H,0,6.566318,-1.210096,3.694432\H,0,3.638103,-2.061473
 ,3.823271\H,0,4.348345,-4.155367,4.492984\H,0,7.170096,-3.36006,3.6175
 19\H,0,6.550036,-4.969049,3.825862\H,0,8.160695,-4.316223,5.575046\H,0
 ,7.157003,-2.991421,6.060473\H,0,6.215231,-5.88994,6.145285\H,0,5.3574
 48,-4.50467,6.760304\H,0,5.8992,-7.035307,8.290596\H,0,4.956211,-5.646
 242,8.77782\H,0,6.26921,-6.235162,9.804949\H,0,8.681048,-5.72759,7.000
 555\H,0,10.896018,-7.030599,9.397911\H,0,11.013762,-5.60945,8.367104\H
 ,0,10.484849,-7.141408,7.678955\H,0,5.55613,-3.897538,9.82364\H,0,5.54
 7455,-1.735473,10.624587\H,0,6.801439,-1.28614,9.473172\H,0,7.235986,-
 2.148029,10.940599\H,0,4.82812,0.684785,-0.816437\H,0,3.710173,3.43460
 4,-2.706288\H,0,4.588171,1.902533,-2.825678\H,0,5.244771,3.226201,-1.8
 73716\\Version=EM64L-G09RevA.02\State=1-A\HF=-1295.6111497\RMSD=6.276e
 -09\Dipole=0.7081735,-1.073,-2.431458\Quadrupole=-8.0101958,-7.2574244
 ,15.2676201,14.7287966,-17.6808738,3.823883\PG=C01 [X(C20H36N4O4)]\\@


 The lyf so short, the craft so long to lerne.
                             -- Chaucer
 Job cpu time:  0 days  0 hours  4 minutes 57.9 seconds.
 File lengths (MBytes):  RWF=    132 Int=      0 D2E=      0 Chk=     10 Scr=      1
 Normal termination of Gaussian 09 at Thu Dec  5 16:19:36 2019.
