 Entering Gaussian System, Link 0=g09
 Input=CHI1_-80.gau
 Output=CHI1_-80.log
 Initial command:
 /home/marie/Utilities//g09/l1.exe /tmp/g09/Gau-5192.inp -scrdir=/tmp/g09/
 Entering Link 1 = /home/marie/Utilities//g09/l1.exe PID=      5195.
  
 Copyright (c) 1988,1990,1992,1993,1995,1998,2003,2009, Gaussian, Inc.
                  All Rights Reserved.
  
 This is part of the Gaussian(R) 09 program.  It is based on
 the Gaussian(R) 03 system (copyright 2003, Gaussian, Inc.),
 the Gaussian(R) 98 system (copyright 1998, Gaussian, Inc.),
 the Gaussian(R) 94 system (copyright 1995, Gaussian, Inc.),
 the Gaussian 92(TM) system (copyright 1992, Gaussian, Inc.),
 the Gaussian 90(TM) system (copyright 1990, Gaussian, Inc.),
 the Gaussian 88(TM) system (copyright 1988, Gaussian, Inc.),
 the Gaussian 86(TM) system (copyright 1986, Carnegie Mellon
 University), and the Gaussian 82(TM) system (copyright 1983,
 Carnegie Mellon University). Gaussian is a federally registered
 trademark of Gaussian, Inc.
  
 This software contains proprietary and confidential information,
 including trade secrets, belonging to Gaussian, Inc.
  
 This software is provided under written license and may be
 used, copied, transmitted, or stored only in accord with that
 written license.
  
 The following legend is applicable only to US Government
 contracts under FAR:
  
                    RESTRICTED RIGHTS LEGEND
  
 Use, reproduction and disclosure by the US Government is
 subject to restrictions as set forth in subparagraphs (a)
 and (c) of the Commercial Computer Software - Restricted
 Rights clause in FAR 52.227-19.
  
 Gaussian, Inc.
 340 Quinnipiac St., Bldg. 40, Wallingford CT 06492
  
  
 ---------------------------------------------------------------
 Warning -- This program may not be used in any manner that
 competes with the business of Gaussian, Inc. or will provide
 assistance to any competitor of Gaussian, Inc.  The licensee
 of this program is prohibited from giving any competitor of
 Gaussian, Inc. access to this program.  By using this program,
 the user acknowledges that Gaussian, Inc. is engaged in the
 business of creating and licensing software in the field of
 computational chemistry and represents and warrants to the
 licensee that it is not a competitor of Gaussian, Inc. and that
 it will not use this program in any manner prohibited above.
 ---------------------------------------------------------------
  

 Cite this work as:
 Gaussian 09, Revision A.02,
 M. J. Frisch, G. W. Trucks, H. B. Schlegel, G. E. Scuseria, 
 M. A. Robb, J. R. Cheeseman, G. Scalmani, V. Barone, B. Mennucci, 
 G. A. Petersson, H. Nakatsuji, M. Caricato, X. Li, H. P. Hratchian, 
 A. F. Izmaylov, J. Bloino, G. Zheng, J. L. Sonnenberg, M. Hada, 
 M. Ehara, K. Toyota, R. Fukuda, J. Hasegawa, M. Ishida, T. Nakajima, 
 Y. Honda, O. Kitao, H. Nakai, T. Vreven, J. A. Montgomery, Jr., 
 J. E. Peralta, F. Ogliaro, M. Bearpark, J. J. Heyd, E. Brothers, 
 K. N. Kudin, V. N. Staroverov, R. Kobayashi, J. Normand, 
 K. Raghavachari, A. Rendell, J. C. Burant, S. S. Iyengar, J. Tomasi, 
 M. Cossi, N. Rega, J. M. Millam, M. Klene, J. E. Knox, J. B. Cross, 
 V. Bakken, C. Adamo, J. Jaramillo, R. Gomperts, R. E. Stratmann, 
 O. Yazyev, A. J. Austin, R. Cammi, C. Pomelli, J. W. Ochterski, 
 R. L. Martin, K. Morokuma, V. G. Zakrzewski, G. A. Voth, 
 P. Salvador, J. J. Dannenberg, S. Dapprich, A. D. Daniels, 
 O. Farkas, J. B. Foresman, J. V. Ortiz, J. Cioslowski, 
 and D. J. Fox, Gaussian, Inc., Wallingford CT, 2009.
 
 ******************************************
 Gaussian 09:  EM64L-G09RevA.02 11-Jun-2009
                 5-Dec-2019 
 ******************************************
 %chk=CHI1_-80
 %NoSave
 ---------------------------------
 #SP HF/6-31G* Geom=(ModRedundant)
 ---------------------------------
 1/18=120,38=1/1;
 2/12=2,17=6,18=5,40=1/2;
 3/5=1,6=6,7=1,11=9,16=1,25=1,30=1/1,2,3;
 4//1;
 5/5=2,38=5/2;
 6/7=2,8=2,9=2,10=2,28=1/1;
 99/5=1,9=1/99;
 ------------
 paramfit run
 ------------
 Symbolic Z-matrix:
 Charge =  0 Multiplicity = 1
 C-CT--0.3208          0.        0.        0. 
 N-N--0.5622           1.44819   0.        0. 
 C-C-0.8053            2.1232    0.47592   1.07237 
 O-O--0.6151           1.59018   0.69673   2.12445 
 C-CX-0.0839           3.65051   0.59414   0.92154 
 C-CU--0.3230          4.1989    1.54925   1.98685 
 C-CU--0.0657          4.30775  -0.80912   1.02398 
 C-CU--0.0109          4.53099  -1.42964   2.41493 
 C-CU-0.0816           3.34008  -2.15259   3.07504 
 C-CM--0.2354          2.76356  -3.27379   2.24268 
 C-CM--0.2653          3.00705  -4.56941   2.35598 
 C-CU-0.1214           3.92322  -5.24832   3.34566 
 C-CU--0.0354          3.1962   -5.92049   4.5243 
 C-CU--0.0984          2.23547  -7.02884   4.07324 
 C-CU-0.1300           1.57224  -7.90686   5.16587 
 C-CU--0.3561          0.62025  -8.88642   4.46044 
 N-N--0.7186           2.61437  -8.65504   5.85559 
 C-C-0.8537            2.34037  -9.40382   6.96343 
 C-CT--0.3868          3.54931  -9.80227   7.77861 
 O-O--0.6323           1.2269   -9.72555   7.27297 
 C-C-0.7903            0.88332  -6.97841   6.19159 
 O-O--0.6136           1.5183   -6.48495   7.08447 
 N-N--0.5650          -0.4148   -6.67182   5.97976 
 C-CT--0.3231         -1.13445  -5.84841   6.92965 
 N-N--0.7191           3.99741   1.07028  -0.42545 
 C-C-0.8539            3.58702   2.26716  -0.93409 
 C-CT--0.3903          4.32815   2.72766  -2.17214 
 O-O--0.6290           2.69713   2.90543  -0.4474 
 H-H1-0.1459          -0.40326   1.00615   0. 
 H-H1-0.1459          -0.36496  -0.516     0.87594 
 H-H1-0.1459          -0.34566  -0.52209  -0.88335 
 H-H-0.3572            1.90424   0.07091  -0.87936 
 H-HC-0.0997           3.93214   1.22176   2.98008 
 H-HC-0.0997           5.28092   1.59593   1.9075 
 H-HC-0.0997           3.79271   2.54059   1.8484 
 H-HC-0.0347           5.28534  -0.70943   0.5575 
 H-HC-0.0347           3.74406  -1.49928   0.40413 
 H-HC-0.0243           5.33115  -2.15544   2.30279 
 H-HC-0.0243           4.90197  -0.67627   3.10208 
 H-HC-0.0171           2.55588  -1.44285   3.3045 
 H-HC-0.0171           3.6864   -2.53454   4.02898 
 H-HA-0.1313           2.07245  -2.96624   1.47464 
 H-HA-0.1359           2.49645  -5.22871   1.67161 
 H-HC-0.0092           4.63541  -4.53775   3.74734 
 H-HC-0.0092           4.50931  -5.99857   2.81629 
 H-HC-0.0318           3.95234  -6.31486   5.19743 
 H-HC-0.0318           2.6585   -5.1694    5.08783 
 H-HC-0.0435           2.75792  -7.70934   3.40429 
 H-HC-0.0435           1.43547  -6.57989   3.49635 
 H-HC-0.1066           1.20717  -9.55752   3.84422 
 H-HC-0.1066          -0.06823  -8.36254   3.80551 
 H-HC-0.1066           0.06267  -9.48057   5.16883 
 H-H-0.3529            3.51399  -8.2315    5.85251 
 H-HC-0.1047           3.30085  -10.66212   8.38191 
 H-HC-0.1047           3.8096   -8.9786    8.43659 
 H-HC-0.1047           4.40714  -10.02636   7.15388 
 H-H-0.3615           -0.95264  -7.26919   5.39737 
 H-H1-0.1469          -2.11031  -5.62174   6.52069 
 H-H1-0.1469          -0.59763  -4.92543   7.0926 
 H-H1-0.1469          -1.25524  -6.34811   7.88541 
 H-H-0.3570            4.82812   0.68479  -0.81644 
 H-HC-0.1060           3.71017   3.4346   -2.70629 
 H-HC-0.1060           4.58817   1.90253  -2.82568 
 H-HC-0.1060           5.24477   3.2262   -1.87372 
 
 The following ModRedundant input section has been read:
 D    *    5    7    * F                                                       
 Stoichiometry    C20H36N4O4
 Framework group  C1[X(C20H36N4O4)]
 Deg. of freedom   186
 Full point group                 C1      NOp   1
 Largest Abelian subgroup         C1      NOp   1
 Largest concise Abelian subgroup C1      NOp   1
                         Standard orientation:                         
 ---------------------------------------------------------------------
 Center     Atomic      Atomic             Coordinates (Angstroms)
 Number     Number       Type             X           Y           Z
 ---------------------------------------------------------------------
      1          6    20001001       -4.305187    2.862035    1.218579
      2          7    20001014       -4.502100    1.448169    0.974749
      3          6    20001002       -4.403444    0.960089   -0.283882
      4          8    20001024       -3.940489    1.597637   -1.188841
      5          6    90000001       -4.791112   -0.517035   -0.476763
      6          6    90000002       -5.075591   -0.783571   -1.958611
      7          6    90000002       -3.663530   -1.439903    0.060337
      8          6    90000002       -2.422611   -1.690346   -0.815467
      9          6    90000002       -1.302837   -0.631085   -0.788821
     10          6    20001004       -0.750183   -0.355294    0.589870
     11          6    20001004        0.350507   -0.851369    1.131302
     12          6    90000002        1.326897   -1.817709    0.504722
     13          6    90000002        2.624085   -1.165515   -0.006659
     14          6    90000002        3.426083   -0.485961    1.111340
     15          6    90000002        4.838075    0.055811    0.768689
     16          6    90000002        5.393732    0.735916    2.030496
     17          7    20001014        5.691234   -1.068203    0.407797
     18          6    20001002        6.951644   -0.878860   -0.080642
     19          6    20001001        7.561085   -2.085333   -0.757256
     20          8    20001024        7.537903    0.163277    0.016267
     21          6    20001002        4.722323    0.989088   -0.457817
     22          8    20001024        4.714125    0.531450   -1.568866
     23          7    20001014        4.529734    2.304951   -0.222446
     24          6    20001001        4.463773    3.241492   -1.325505
     25          7    20001014       -5.966125   -0.849877    0.341769
     26          6    20001002       -7.177809   -0.238119    0.210445
     27          6    20001001       -8.334139   -0.951616    0.879732
     28          8    20001024       -7.319788    0.794977   -0.380058
     29          1    20001035       -5.082899    3.462372    0.760638
     30          1    20001035       -3.351366    3.172162    0.817617
     31          1    20001035       -4.307445    3.031986    2.287908
     32          1    20001029       -5.101877    0.957463    1.595845
     33          1    20001034       -4.227204   -0.522589   -2.572662
     34          1    20001034       -5.304568   -1.835776   -2.098869
     35          1    20001034       -5.916087   -0.192861   -2.292610
     36          1    20001034       -4.133091   -2.405690    0.233513
     37          1    20001034       -3.353512   -1.073623    1.033994
     38          1    20001034       -1.991942   -2.628258   -0.477142
     39          1    20001034       -2.722070   -1.850914   -1.845960
     40          1    20001034       -1.658473    0.295960   -1.219488
     41          1    20001034       -0.514149   -0.982519   -1.444794
     42          1    20001033       -1.329140    0.330173    1.187413
     43          1    20001033        0.592619   -0.534987    2.133822
     44          1    20001034        0.860938   -2.339674   -0.322261
     45          1    20001034        1.579596   -2.580116    1.240571
     46          1    20001034        3.214328   -1.938782   -0.490439
     47          1    20001034        2.382723   -0.447833   -0.779645
     48          1    20001034        3.553682   -1.181445    1.938113
     49          1    20001034        2.849076    0.347903    1.493548
     50          1    20001034        5.533505   -0.016982    2.797431
     51          1    20001034        4.697043    1.470965    2.419991
     52          1    20001034        6.347132    1.206608    1.842839
     53          1    20001029        5.216773   -1.859728    0.037545
     54          1    20001034        8.635053   -1.978175   -0.770268
     55          1    20001034        7.202614   -2.125390   -1.781473
     56          1    20001034        7.289507   -3.011503   -0.262445
     57          1    20001029        4.779868    2.667615    0.667058
     58          1    20001035        4.186090    4.212855   -0.937864
     59          1    20001035        3.715827    2.918061   -2.034445
     60          1    20001035        5.414387    3.322030   -1.842807
     61          1    20001029       -5.973117   -1.766753    0.730144
     62          1    20001034       -9.126088   -0.239558    1.060735
     63          1    20001034       -8.042794   -1.419542    1.813388
     64          1    20001034       -8.708707   -1.723759    0.215432
 ---------------------------------------------------------------------
 Rotational constants (GHZ):      0.4249171      0.0478058      0.0459625
 Standard basis: 6-31G(d) (6D, 7F)
 There are   492 symmetry adapted basis functions of A   symmetry.
 Integral buffers will be    131072 words long.
 Raffenetti 1 integral format.
 Two-electron integral symmetry is turned on.
   492 basis functions,   928 primitive gaussians,   492 cartesian basis functions
   108 alpha electrons      108 beta electrons
       nuclear repulsion energy      2670.9910751656 Hartrees.
 NAtoms=   64 NActive=   64 NUniq=   64 SFac= 7.50D-01 NAtFMM=   80 NAOKFM=F Big=T
 One-electron integrals computed using PRISM.
 NBasis=   492 RedAO= T  NBF=   492
 NBsUse=   492 1.00D-06 NBFU=   492
 Harris functional with IExCor=  205 diagonalized for initial guess.
 ExpMin= 1.61D-01 ExpMax= 5.48D+03 ExpMxC= 8.25D+02 IAcc=1 IRadAn=         1 AccDes= 0.00D+00
 HarFok:  IExCor=  205 AccDes= 0.00D+00 IRadAn=         1 IDoV= 1
 ScaDFX=  1.000000  1.000000  1.000000  1.000000
 FoFCou: FMM=F IPFlag=           0 FMFlag=      100000 FMFlg1=           1
         NFxFlg=           0 DoJE=T BraDBF=F KetDBF=T FulRan=T
         Omega=  0.000000  0.000000  1.000000  0.000000  0.000000 ICntrl=     500 IOpCl=  0
         NMat0=    1 NMatS0=    1 NMatT0=    0 NMatD0=    1 NMtDS0=    0 NMtDT0=    0
         I1Cent=           4 NGrid=           0.
 Petite list used in FoFCou.
 Initial guess orbital symmetries:
       Occupied  (A) (A) (A) (A) (A) (A) (A) (A) (A) (A) (A) (A)
                 (A) (A) (A) (A) (A) (A) (A) (A) (A) (A) (A) (A)
                 (A) (A) (A) (A) (A) (A) (A) (A) (A) (A) (A) (A)
                 (A) (A) (A) (A) (A) (A) (A) (A) (A) (A) (A) (A)
                 (A) (A) (A) (A) (A) (A) (A) (A) (A) (A) (A) (A)
                 (A) (A) (A) (A) (A) (A) (A) (A) (A) (A) (A) (A)
                 (A) (A) (A) (A) (A) (A) (A) (A) (A) (A) (A) (A)
                 (A) (A) (A) (A) (A) (A) (A) (A) (A) (A) (A) (A)
                 (A) (A) (A) (A) (A) (A) (A) (A) (A) (A) (A) (A)
       Virtual   (A) (A) (A) (A) (A) (A) (A) (A) (A) (A) (A) (A)
                 (A) (A) (A) (A) (A) (A) (A) (A) (A) (A) (A) (A)
                 (A) (A) (A) (A) (A) (A) (A) (A) (A) (A) (A) (A)
                 (A) (A) (A) (A) (A) (A) (A) (A) (A) (A) (A) (A)
                 (A) (A) (A) (A) (A) (A) (A) (A) (A) (A) (A) (A)
                 (A) (A) (A) (A) (A) (A) (A) (A) (A) (A) (A) (A)
                 (A) (A) (A) (A) (A) (A) (A) (A) (A) (A) (A) (A)
                 (A) (A) (A) (A) (A) (A) (A) (A) (A) (A) (A) (A)
                 (A) (A) (A) (A) (A) (A) (A) (A) (A) (A) (A) (A)
                 (A) (A) (A) (A) (A) (A) (A) (A) (A) (A) (A) (A)
                 (A) (A) (A) (A) (A) (A) (A) (A) (A) (A) (A) (A)
                 (A) (A) (A) (A) (A) (A) (A) (A) (A) (A) (A) (A)
                 (A) (A) (A) (A) (A) (A) (A) (A) (A) (A) (A) (A)
                 (A) (A) (A) (A) (A) (A) (A) (A) (A) (A) (A) (A)
                 (A) (A) (A) (A) (A) (A) (A) (A) (A) (A) (A) (A)
                 (A) (A) (A) (A) (A) (A) (A) (A) (A) (A) (A) (A)
                 (A) (A) (A) (A) (A) (A) (A) (A) (A) (A) (A) (A)
                 (A) (A) (A) (A) (A) (A) (A) (A) (A) (A) (A) (A)
                 (A) (A) (A) (A) (A) (A) (A) (A) (A) (A) (A) (A)
                 (A) (A) (A) (A) (A) (A) (A) (A) (A) (A) (A) (A)
                 (A) (A) (A) (A) (A) (A) (A) (A) (A) (A) (A) (A)
                 (A) (A) (A) (A) (A) (A) (A) (A) (A) (A) (A) (A)
                 (A) (A) (A) (A) (A) (A) (A) (A) (A) (A) (A) (A)
                 (A) (A) (A) (A) (A) (A) (A) (A) (A) (A) (A) (A)
                 (A) (A) (A) (A) (A) (A) (A) (A) (A) (A) (A) (A)
                 (A) (A) (A) (A) (A) (A) (A) (A) (A) (A) (A) (A)
                 (A) (A) (A) (A) (A) (A) (A) (A) (A) (A) (A) (A)
                 (A) (A) (A) (A) (A) (A) (A) (A) (A) (A) (A) (A)
                 (A) (A) (A) (A) (A) (A) (A) (A) (A) (A) (A) (A)
                 (A) (A) (A) (A) (A) (A) (A) (A) (A) (A) (A) (A)
                 (A) (A) (A) (A) (A) (A) (A) (A) (A) (A) (A) (A)
                 (A) (A) (A) (A) (A) (A) (A) (A) (A) (A) (A) (A)
 The electronic state of the initial guess is 1-A.
 Requested convergence on RMS density matrix=1.00D-08 within 128 cycles.
 Requested convergence on MAX density matrix=1.00D-06.
 Requested convergence on             energy=1.00D-06.
 No special actions if energy rises.
 Integral accuracy reduced to 1.0D-05 until final iterations.
 Initial convergence to 1.0D-05 achieved.  Increase integral accuracy.
 SCF Done:  E(RHF) =  -1295.62007276     A.U. after   14 cycles
             Convg  =    0.6078D-08             -V/T =  2.0012

 **********************************************************************

            Population analysis using the SCF density.

 **********************************************************************

 Orbital symmetries:
       Occupied  (A) (A) (A) (A) (A) (A) (A) (A) (A) (A) (A) (A)
                 (A) (A) (A) (A) (A) (A) (A) (A) (A) (A) (A) (A)
                 (A) (A) (A) (A) (A) (A) (A) (A) (A) (A) (A) (A)
                 (A) (A) (A) (A) (A) (A) (A) (A) (A) (A) (A) (A)
                 (A) (A) (A) (A) (A) (A) (A) (A) (A) (A) (A) (A)
                 (A) (A) (A) (A) (A) (A) (A) (A) (A) (A) (A) (A)
                 (A) (A) (A) (A) (A) (A) (A) (A) (A) (A) (A) (A)
                 (A) (A) (A) (A) (A) (A) (A) (A) (A) (A) (A) (A)
                 (A) (A) (A) (A) (A) (A) (A) (A) (A) (A) (A) (A)
       Virtual   (A) (A) (A) (A) (A) (A) (A) (A) (A) (A) (A) (A)
                 (A) (A) (A) (A) (A) (A) (A) (A) (A) (A) (A) (A)
                 (A) (A) (A) (A) (A) (A) (A) (A) (A) (A) (A) (A)
                 (A) (A) (A) (A) (A) (A) (A) (A) (A) (A) (A) (A)
                 (A) (A) (A) (A) (A) (A) (A) (A) (A) (A) (A) (A)
                 (A) (A) (A) (A) (A) (A) (A) (A) (A) (A) (A) (A)
                 (A) (A) (A) (A) (A) (A) (A) (A) (A) (A) (A) (A)
                 (A) (A) (A) (A) (A) (A) (A) (A) (A) (A) (A) (A)
                 (A) (A) (A) (A) (A) (A) (A) (A) (A) (A) (A) (A)
                 (A) (A) (A) (A) (A) (A) (A) (A) (A) (A) (A) (A)
                 (A) (A) (A) (A) (A) (A) (A) (A) (A) (A) (A) (A)
                 (A) (A) (A) (A) (A) (A) (A) (A) (A) (A) (A) (A)
                 (A) (A) (A) (A) (A) (A) (A) (A) (A) (A) (A) (A)
                 (A) (A) (A) (A) (A) (A) (A) (A) (A) (A) (A) (A)
                 (A) (A) (A) (A) (A) (A) (A) (A) (A) (A) (A) (A)
                 (A) (A) (A) (A) (A) (A) (A) (A) (A) (A) (A) (A)
                 (A) (A) (A) (A) (A) (A) (A) (A) (A) (A) (A) (A)
                 (A) (A) (A) (A) (A) (A) (A) (A) (A) (A) (A) (A)
                 (A) (A) (A) (A) (A) (A) (A) (A) (A) (A) (A) (A)
                 (A) (A) (A) (A) (A) (A) (A) (A) (A) (A) (A) (A)
                 (A) (A) (A) (A) (A) (A) (A) (A) (A) (A) (A) (A)
                 (A) (A) (A) (A) (A) (A) (A) (A) (A) (A) (A) (A)
                 (A) (A) (A) (A) (A) (A) (A) (A) (A) (A) (A) (A)
                 (A) (A) (A) (A) (A) (A) (A) (A) (A) (A) (A) (A)
                 (A) (A) (A) (A) (A) (A) (A) (A) (A) (A) (A) (A)
                 (A) (A) (A) (A) (A) (A) (A) (A) (A) (A) (A) (A)
                 (A) (A) (A) (A) (A) (A) (A) (A) (A) (A) (A) (A)
                 (A) (A) (A) (A) (A) (A) (A) (A) (A) (A) (A) (A)
                 (A) (A) (A) (A) (A) (A) (A) (A) (A) (A) (A) (A)
                 (A) (A) (A) (A) (A) (A) (A) (A) (A) (A) (A) (A)
                 (A) (A) (A) (A) (A) (A) (A) (A) (A) (A) (A) (A)
                 (A) (A) (A) (A) (A) (A) (A) (A) (A) (A) (A) (A)
 The electronic state is 1-A.
 Alpha  occ. eigenvalues --  -20.53632 -20.52004 -20.51889 -20.51519 -15.59600
 Alpha  occ. eigenvalues --  -15.57810 -15.57475 -15.57466 -11.35944 -11.34213
 Alpha  occ. eigenvalues --  -11.33865 -11.33605 -11.29022 -11.28504 -11.24875
 Alpha  occ. eigenvalues --  -11.24875 -11.24352 -11.23995 -11.23336 -11.22711
 Alpha  occ. eigenvalues --  -11.22527 -11.22488 -11.22310 -11.22199 -11.22010
 Alpha  occ. eigenvalues --  -11.21739 -11.21631 -11.20827  -1.40571  -1.39310
 Alpha  occ. eigenvalues --   -1.38693  -1.38030  -1.25443  -1.23498  -1.22524
 Alpha  occ. eigenvalues --   -1.22041  -1.10761  -1.09264  -1.07150  -1.04179
 Alpha  occ. eigenvalues --   -1.01210  -0.99271  -0.98692  -0.95512  -0.95115
 Alpha  occ. eigenvalues --   -0.94532  -0.92248  -0.87357  -0.85654  -0.82654
 Alpha  occ. eigenvalues --   -0.81312  -0.79438  -0.78866  -0.77131  -0.76802
 Alpha  occ. eigenvalues --   -0.71866  -0.71257  -0.70981  -0.69039  -0.67946
 Alpha  occ. eigenvalues --   -0.66660  -0.65655  -0.64500  -0.63967  -0.63599
 Alpha  occ. eigenvalues --   -0.62657  -0.62332  -0.61802  -0.61383  -0.61169
 Alpha  occ. eigenvalues --   -0.60908  -0.59804  -0.59279  -0.58663  -0.58573
 Alpha  occ. eigenvalues --   -0.58312  -0.57743  -0.56484  -0.56331  -0.56156
 Alpha  occ. eigenvalues --   -0.55505  -0.54823  -0.54700  -0.54535  -0.53900
 Alpha  occ. eigenvalues --   -0.53096  -0.52945  -0.52330  -0.52105  -0.51512
 Alpha  occ. eigenvalues --   -0.51108  -0.50191  -0.49739  -0.49187  -0.48608
 Alpha  occ. eigenvalues --   -0.48236  -0.46944  -0.46345  -0.44494  -0.42830
 Alpha  occ. eigenvalues --   -0.42030  -0.41443  -0.41017  -0.39294  -0.38771
 Alpha  occ. eigenvalues --   -0.38241  -0.38204  -0.34477
 Alpha virt. eigenvalues --    0.17340   0.18814   0.19711   0.19968   0.20311
 Alpha virt. eigenvalues --    0.21651   0.22025   0.23175   0.23506   0.23818
 Alpha virt. eigenvalues --    0.25251   0.25675   0.26637   0.27013   0.27788
 Alpha virt. eigenvalues --    0.28048   0.28469   0.28593   0.29195   0.29416
 Alpha virt. eigenvalues --    0.29659   0.30332   0.31195   0.31482   0.31813
 Alpha virt. eigenvalues --    0.32093   0.32377   0.33268   0.33492   0.33695
 Alpha virt. eigenvalues --    0.34000   0.34532   0.34612   0.34982   0.35284
 Alpha virt. eigenvalues --    0.35613   0.36170   0.36330   0.36903   0.37175
 Alpha virt. eigenvalues --    0.37719   0.38493   0.38784   0.39578   0.40242
 Alpha virt. eigenvalues --    0.40438   0.41445   0.41959   0.42633   0.44132
 Alpha virt. eigenvalues --    0.44460   0.44903   0.45591   0.46170   0.47058
 Alpha virt. eigenvalues --    0.47365   0.48667   0.49193   0.52310   0.53015
 Alpha virt. eigenvalues --    0.54212   0.54602   0.57751   0.58288   0.59804
 Alpha virt. eigenvalues --    0.62155   0.63467   0.64653   0.69213   0.70189
 Alpha virt. eigenvalues --    0.70993   0.71442   0.72562   0.72737   0.73106
 Alpha virt. eigenvalues --    0.73627   0.74393   0.75303   0.76089   0.76413
 Alpha virt. eigenvalues --    0.76741   0.77143   0.77715   0.78620   0.78974
 Alpha virt. eigenvalues --    0.79661   0.80066   0.80454   0.81069   0.82379
 Alpha virt. eigenvalues --    0.83441   0.84085   0.84927   0.85580   0.86148
 Alpha virt. eigenvalues --    0.87566   0.88325   0.89168   0.90379   0.90739
 Alpha virt. eigenvalues --    0.91550   0.92410   0.92635   0.93468   0.94158
 Alpha virt. eigenvalues --    0.94670   0.95572   0.96478   0.97116   0.97736
 Alpha virt. eigenvalues --    0.98288   0.98863   0.99458   1.00149   1.00546
 Alpha virt. eigenvalues --    1.01223   1.02159   1.02516   1.02616   1.03940
 Alpha virt. eigenvalues --    1.04134   1.05236   1.05904   1.06416   1.06720
 Alpha virt. eigenvalues --    1.07594   1.08056   1.08934   1.10519   1.10665
 Alpha virt. eigenvalues --    1.12032   1.13071   1.13291   1.13732   1.13940
 Alpha virt. eigenvalues --    1.14551   1.14895   1.15134   1.15314   1.15754
 Alpha virt. eigenvalues --    1.16065   1.16443   1.17069   1.17627   1.17833
 Alpha virt. eigenvalues --    1.18305   1.18395   1.18506   1.19105   1.19261
 Alpha virt. eigenvalues --    1.19896   1.20260   1.20572   1.20802   1.21348
 Alpha virt. eigenvalues --    1.21742   1.21836   1.22336   1.22714   1.22945
 Alpha virt. eigenvalues --    1.23200   1.23641   1.23837   1.24583   1.26071
 Alpha virt. eigenvalues --    1.26425   1.27009   1.27311   1.27580   1.28759
 Alpha virt. eigenvalues --    1.29609   1.30461   1.31161   1.31340   1.31892
 Alpha virt. eigenvalues --    1.32567   1.33365   1.34536   1.35831   1.37378
 Alpha virt. eigenvalues --    1.38350   1.39030   1.40290   1.42200   1.42864
 Alpha virt. eigenvalues --    1.44113   1.45380   1.46397   1.47520   1.48100
 Alpha virt. eigenvalues --    1.50051   1.51672   1.53783   1.54471   1.54537
 Alpha virt. eigenvalues --    1.56159   1.58106   1.59410   1.59817   1.61121
 Alpha virt. eigenvalues --    1.61574   1.64016   1.65036   1.67108   1.68892
 Alpha virt. eigenvalues --    1.69502   1.71250   1.71738   1.73022   1.73327
 Alpha virt. eigenvalues --    1.74411   1.75207   1.78427   1.78606   1.80298
 Alpha virt. eigenvalues --    1.80791   1.81646   1.82870   1.86809   1.88667
 Alpha virt. eigenvalues --    1.89617   1.91120   1.91448   1.93105   1.94015
 Alpha virt. eigenvalues --    1.95916   1.96764   1.98584   1.99715   2.00848
 Alpha virt. eigenvalues --    2.04589   2.05432   2.06365   2.07528   2.08471
 Alpha virt. eigenvalues --    2.08984   2.10572   2.11626   2.12366   2.12789
 Alpha virt. eigenvalues --    2.13222   2.13741   2.14556   2.16302   2.16396
 Alpha virt. eigenvalues --    2.16983   2.17673   2.18253   2.19096   2.19368
 Alpha virt. eigenvalues --    2.20322   2.21329   2.21769   2.22946   2.23884
 Alpha virt. eigenvalues --    2.24793   2.25788   2.26123   2.26821   2.27019
 Alpha virt. eigenvalues --    2.27895   2.28778   2.29518   2.30521   2.31730
 Alpha virt. eigenvalues --    2.32855   2.33222   2.34212   2.35235   2.35904
 Alpha virt. eigenvalues --    2.36882   2.37243   2.38004   2.38637   2.39365
 Alpha virt. eigenvalues --    2.39699   2.40803   2.41951   2.43605   2.43752
 Alpha virt. eigenvalues --    2.45404   2.46410   2.48421   2.49366   2.49746
 Alpha virt. eigenvalues --    2.51155   2.52380   2.54416   2.55527   2.55791
 Alpha virt. eigenvalues --    2.56590   2.57250   2.57678   2.59421   2.60878
 Alpha virt. eigenvalues --    2.61873   2.63327   2.64253   2.64695   2.65138
 Alpha virt. eigenvalues --    2.66765   2.68441   2.69552   2.70357   2.71431
 Alpha virt. eigenvalues --    2.72091   2.73256   2.74750   2.74975   2.76293
 Alpha virt. eigenvalues --    2.76611   2.77966   2.78165   2.79532   2.80105
 Alpha virt. eigenvalues --    2.81099   2.82602   2.84211   2.85118   2.86416
 Alpha virt. eigenvalues --    2.87916   2.88392   2.90970   2.91820   2.95890
 Alpha virt. eigenvalues --    2.96888   2.97924   2.98879   2.98921   3.01788
 Alpha virt. eigenvalues --    3.03255   3.03986   3.05572   3.06175   3.06659
 Alpha virt. eigenvalues --    3.11095   3.11310   3.13150   3.14266   3.15311
 Alpha virt. eigenvalues --    3.15886   3.18407   3.21956   3.29260   3.30656
 Alpha virt. eigenvalues --    3.34213   3.34462   3.38555   3.40534   3.41189
 Alpha virt. eigenvalues --    3.42773   3.43049   3.53163   3.55788   3.57651
 Alpha virt. eigenvalues --    3.60216   4.38519   4.40369   4.44318   4.46703
 Alpha virt. eigenvalues --    4.49232   4.51946   4.54964   4.57728   4.60502
 Alpha virt. eigenvalues --    4.63022   4.66318   4.67387   4.67997   4.70215
 Alpha virt. eigenvalues --    4.72350   4.76170   4.78374   4.83123   4.83943
 Alpha virt. eigenvalues --    4.88320   4.89471   4.93869   4.95419   4.99217
 Alpha virt. eigenvalues --    5.02444   5.10355   5.21664   5.23646
          Condensed to atoms (all electrons):
 Mulliken atomic charges:
              1
     1  C   -0.278963
     2  N   -0.782764
     3  C    0.815731
     4  O   -0.623931
     5  C    0.113062
     6  C   -0.478771
     7  C   -0.338726
     8  C   -0.310365
     9  C   -0.372611
    10  C   -0.178804
    11  C   -0.177590
    12  C   -0.353448
    13  C   -0.310477
    14  C   -0.329249
    15  C    0.090962
    16  C   -0.509679
    17  N   -0.787608
    18  C    0.767352
    19  C   -0.595674
    20  O   -0.613793
    21  C    0.820674
    22  O   -0.639764
    23  N   -0.805648
    24  C   -0.275596
    25  N   -0.846515
    26  C    0.744737
    27  C   -0.589004
    28  O   -0.591711
    29  H    0.186434
    30  H    0.197658
    31  H    0.162208
    32  H    0.391174
    33  H    0.199520
    34  H    0.144640
    35  H    0.213147
    36  H    0.152155
    37  H    0.193253
    38  H    0.164738
    39  H    0.175771
    40  H    0.214979
    41  H    0.173041
    42  H    0.182543
    43  H    0.170829
    44  H    0.176048
    45  H    0.160204
    46  H    0.150640
    47  H    0.199694
    48  H    0.172988
    49  H    0.185875
    50  H    0.183336
    51  H    0.148847
    52  H    0.226538
    53  H    0.389617
    54  H    0.211114
    55  H    0.209327
    56  H    0.176141
    57  H    0.395368
    58  H    0.165452
    59  H    0.199908
    60  H    0.184522
    61  H    0.383150
    62  H    0.218731
    63  H    0.177310
    64  H    0.201274
 Sum of Mulliken atomic charges =   0.00000
 Mulliken charges with hydrogens summed into heavy atoms:
              1
     1  C    0.267337
     2  N   -0.391591
     3  C    0.815731
     4  O   -0.623931
     5  C    0.113062
     6  C    0.078536
     7  C    0.006682
     8  C    0.030145
     9  C    0.015409
    10  C    0.003738
    11  C   -0.006761
    12  C   -0.017196
    13  C    0.039857
    14  C    0.029614
    15  C    0.090962
    16  C    0.049042
    17  N   -0.397990
    18  C    0.767352
    19  C    0.000908
    20  O   -0.613793
    21  C    0.820674
    22  O   -0.639764
    23  N   -0.410280
    24  C    0.274285
    25  N   -0.463365
    26  C    0.744737
    27  C    0.008312
    28  O   -0.591711
 Sum of Mulliken charges with hydrogens summed into heavy atoms =   0.00000
 Electronic spatial extent (au):  <R**2>=          22691.1475
 Charge=              0.0000 electrons
 Dipole moment (field-independent basis, Debye):
    X=             -3.3219    Y=             -4.8697    Z=              5.8287  Tot=              8.2899
 Quadrupole moment (field-independent basis, Debye-Ang):
   XX=           -189.6507   YY=           -155.6598   ZZ=           -173.1936
   XY=             18.1282   XZ=            -13.4122   YZ=              9.0888
 Traceless Quadrupole moment (field-independent basis, Debye-Ang):
   XX=            -16.8160   YY=             17.1749   ZZ=             -0.3589
   XY=             18.1282   XZ=            -13.4122   YZ=              9.0888
 Octapole moment (field-independent basis, Debye-Ang**2):
  XXX=           -342.7810  YYY=             39.2937  ZZZ=              7.5399  XYY=             61.8979
  XXY=           -245.8615  XXZ=            160.9327  XZZ=            -16.5608  YZZ=              6.2143
  YYZ=              6.3019  XYZ=            -12.0774
 Hexadecapole moment (field-independent basis, Debye-Ang**3):
 XXXX=         -27757.6147 YYYY=          -2251.7700 ZZZZ=          -1258.4080 XXXY=            487.7332
 XXXZ=           -873.2670 YYYX=             92.7806 YYYZ=              7.5731 ZZZX=            -26.4105
 ZZZY=              6.4241 XXYY=          -4276.6175 XXZZ=          -4537.7580 YYZZ=           -596.8336
 XXYZ=            217.7967 YYXZ=           -110.6371 ZZXY=             14.5866
 N-N= 2.670991075166D+03 E-N=-8.374095100677D+03  KE= 1.294020060277D+03
 1\1\GINC-MOSURA\SP\RHF\6-31G(d)\C20H36N4O4\MARIE\05-Dec-2019\0\\#SP HF
 /6-31G* Geom=(ModRedundant)\\paramfit run\\0,1\C,0,0.,0.,0.\N,0,1.4481
 87,0.,0.\C,0,2.1232,0.47592,1.072365\O,0,1.590179,0.696732,2.124447\C,
 0,3.650505,0.594143,0.921539\C,0,4.198902,1.549248,1.986845\C,0,4.3077
 51,-0.809116,1.023981\C,0,4.530986,-1.429642,2.414933\C,0,3.340084,-2.
 15259,3.075036\C,0,2.763555,-3.273786,2.242683\C,0,3.007049,-4.569406,
 2.355984\C,0,3.923223,-5.24832,3.345658\C,0,3.196204,-5.920486,4.52430
 2\C,0,2.235469,-7.028837,4.073235\C,0,1.572237,-7.906858,5.165869\C,0,
 0.620247,-8.886417,4.460438\N,0,2.61437,-8.655041,5.855588\C,0,2.34037
 1,-9.403821,6.963428\C,0,3.549306,-9.802268,7.778609\O,0,1.2269,-9.725
 546,7.27297\C,0,0.883322,-6.978407,6.191587\O,0,1.518295,-6.484948,7.0
 84468\N,0,-0.414798,-6.671817,5.97976\C,0,-1.134455,-5.848412,6.929654
 \N,0,3.997412,1.070275,-0.425452\C,0,3.587019,2.267163,-0.934086\C,0,4
 .328148,2.727659,-2.172145\O,0,2.697134,2.905425,-0.447397\H,0,-0.4032
 59,1.006147,0.\H,0,-0.36496,-0.516002,0.875939\H,0,-0.345658,-0.522086
 ,-0.883346\H,0,1.904244,0.070913,-0.879357\H,0,3.932135,1.22176,2.9800
 82\H,0,5.28092,1.595925,1.9075\H,0,3.792711,2.540594,1.848395\H,0,5.28
 5339,-0.709426,0.5575\H,0,3.744064,-1.499276,0.404129\H,0,5.331148,-2.
 15544,2.302789\H,0,4.90197,-0.676268,3.102081\H,0,2.555877,-1.44285,3.
 304495\H,0,3.686395,-2.534544,4.028983\H,0,2.072447,-2.966238,1.474635
 \H,0,2.496452,-5.228709,1.671607\H,0,4.635413,-4.537754,3.747338\H,0,4
 .509307,-5.998568,2.816292\H,0,3.952342,-6.314859,5.197427\H,0,2.65849
 6,-5.169396,5.08783\H,0,2.757918,-7.709345,3.404288\H,0,1.435472,-6.57
 9887,3.496348\H,0,1.207168,-9.557517,3.844216\H,0,-0.068231,-8.362537,
 3.805512\H,0,0.062669,-9.480574,5.168833\H,0,3.513989,-8.231499,5.8525
 14\H,0,3.300848,-10.662124,8.381914\H,0,3.809601,-8.978595,8.436586\H,
 0,4.407142,-10.026359,7.153883\H,0,-0.952644,-7.269188,5.397368\H,0,-2
 .110307,-5.621741,6.520689\H,0,-0.597625,-4.925433,7.092596\H,0,-1.255
 244,-6.34811,7.885408\H,0,4.82812,0.684785,-0.816437\H,0,3.710173,3.43
 4604,-2.706288\H,0,4.588171,1.902533,-2.825678\H,0,5.244771,3.226201,-
 1.873716\\Version=EM64L-G09RevA.02\State=1-A\HF=-1295.6200728\RMSD=6.0
 78e-09\Dipole=1.6620984,-0.5105174,-2.759391\Quadrupole=17.2756552,-22
 .7502152,5.4745599,7.6376473,-2.0387517,0.9877908\PG=C01 [X(C20H36N4O4
 )]\\@


 THERE'S NOTHING SO GREAT AS THE GREAT OUTDOORS.

                                       -- ZIGGY
 Job cpu time:  0 days  0 hours  5 minutes  7.7 seconds.
 File lengths (MBytes):  RWF=    132 Int=      0 D2E=      0 Chk=     10 Scr=      1
 Normal termination of Gaussian 09 at Thu Dec  5 16:50:07 2019.
