 Entering Gaussian System, Link 0=g09
 Input=CHI1_30.gau
 Output=CHI1_30.log
 Initial command:
 /home/marie/Utilities//g09/l1.exe /tmp/g09/Gau-5081.inp -scrdir=/tmp/g09/
 Entering Link 1 = /home/marie/Utilities//g09/l1.exe PID=      5083.
  
 Copyright (c) 1988,1990,1992,1993,1995,1998,2003,2009, Gaussian, Inc.
                  All Rights Reserved.
  
 This is part of the Gaussian(R) 09 program.  It is based on
 the Gaussian(R) 03 system (copyright 2003, Gaussian, Inc.),
 the Gaussian(R) 98 system (copyright 1998, Gaussian, Inc.),
 the Gaussian(R) 94 system (copyright 1995, Gaussian, Inc.),
 the Gaussian 92(TM) system (copyright 1992, Gaussian, Inc.),
 the Gaussian 90(TM) system (copyright 1990, Gaussian, Inc.),
 the Gaussian 88(TM) system (copyright 1988, Gaussian, Inc.),
 the Gaussian 86(TM) system (copyright 1986, Carnegie Mellon
 University), and the Gaussian 82(TM) system (copyright 1983,
 Carnegie Mellon University). Gaussian is a federally registered
 trademark of Gaussian, Inc.
  
 This software contains proprietary and confidential information,
 including trade secrets, belonging to Gaussian, Inc.
  
 This software is provided under written license and may be
 used, copied, transmitted, or stored only in accord with that
 written license.
  
 The following legend is applicable only to US Government
 contracts under FAR:
  
                    RESTRICTED RIGHTS LEGEND
  
 Use, reproduction and disclosure by the US Government is
 subject to restrictions as set forth in subparagraphs (a)
 and (c) of the Commercial Computer Software - Restricted
 Rights clause in FAR 52.227-19.
  
 Gaussian, Inc.
 340 Quinnipiac St., Bldg. 40, Wallingford CT 06492
  
  
 ---------------------------------------------------------------
 Warning -- This program may not be used in any manner that
 competes with the business of Gaussian, Inc. or will provide
 assistance to any competitor of Gaussian, Inc.  The licensee
 of this program is prohibited from giving any competitor of
 Gaussian, Inc. access to this program.  By using this program,
 the user acknowledges that Gaussian, Inc. is engaged in the
 business of creating and licensing software in the field of
 computational chemistry and represents and warrants to the
 licensee that it is not a competitor of Gaussian, Inc. and that
 it will not use this program in any manner prohibited above.
 ---------------------------------------------------------------
  

 Cite this work as:
 Gaussian 09, Revision A.02,
 M. J. Frisch, G. W. Trucks, H. B. Schlegel, G. E. Scuseria, 
 M. A. Robb, J. R. Cheeseman, G. Scalmani, V. Barone, B. Mennucci, 
 G. A. Petersson, H. Nakatsuji, M. Caricato, X. Li, H. P. Hratchian, 
 A. F. Izmaylov, J. Bloino, G. Zheng, J. L. Sonnenberg, M. Hada, 
 M. Ehara, K. Toyota, R. Fukuda, J. Hasegawa, M. Ishida, T. Nakajima, 
 Y. Honda, O. Kitao, H. Nakai, T. Vreven, J. A. Montgomery, Jr., 
 J. E. Peralta, F. Ogliaro, M. Bearpark, J. J. Heyd, E. Brothers, 
 K. N. Kudin, V. N. Staroverov, R. Kobayashi, J. Normand, 
 K. Raghavachari, A. Rendell, J. C. Burant, S. S. Iyengar, J. Tomasi, 
 M. Cossi, N. Rega, J. M. Millam, M. Klene, J. E. Knox, J. B. Cross, 
 V. Bakken, C. Adamo, J. Jaramillo, R. Gomperts, R. E. Stratmann, 
 O. Yazyev, A. J. Austin, R. Cammi, C. Pomelli, J. W. Ochterski, 
 R. L. Martin, K. Morokuma, V. G. Zakrzewski, G. A. Voth, 
 P. Salvador, J. J. Dannenberg, S. Dapprich, A. D. Daniels, 
 O. Farkas, J. B. Foresman, J. V. Ortiz, J. Cioslowski, 
 and D. J. Fox, Gaussian, Inc., Wallingford CT, 2009.
 
 ******************************************
 Gaussian 09:  EM64L-G09RevA.02 11-Jun-2009
                 5-Dec-2019 
 ******************************************
 %chk=CHI1_30
 %NoSave
 ---------------------------------
 #SP HF/6-31G* Geom=(ModRedundant)
 ---------------------------------
 1/18=120,38=1/1;
 2/12=2,17=6,18=5,40=1/2;
 3/5=1,6=6,7=1,11=9,16=1,25=1,30=1/1,2,3;
 4//1;
 5/5=2,38=5/2;
 6/7=2,8=2,9=2,10=2,28=1/1;
 99/5=1,9=1/99;
 ------------
 paramfit run
 ------------
 Symbolic Z-matrix:
 Charge =  0 Multiplicity = 1
 C-CT--0.3208          0.        0.        0. 
 N-N--0.5622           1.44819   0.        0. 
 C-C-0.8053            2.1232    0.47592   1.07237 
 O-O--0.6151           1.59018   0.69673   2.12445 
 C-CX-0.0839           3.65051   0.59414   0.92154 
 C-CU--0.3230          4.1989    1.54925   1.98685 
 C-CU--0.0657          4.30775  -0.80912   1.02398 
 C-CU--0.0109          3.51303  -2.04205   0.55714 
 C-CU-0.0816           3.51415  -2.36492  -0.9503 
 C-CM--0.2354          4.89328  -2.55228  -1.53784 
 C-CM--0.2653          5.52184  -3.69288  -1.77168 
 C-CU-0.1214           5.01598  -5.09082  -1.50781 
 C-CU--0.0354          4.51987  -5.83246  -2.76217 
 C-CU--0.0984          5.62118  -6.0189   -3.81444 
 C-CU-0.1300           5.3068   -6.9034   -5.04873 
 C-CU--0.3561          6.53959  -6.87519  -5.96682 
 N-N--0.7186           5.07145  -8.2671   -4.59436 
 C-C-0.8537            4.63083  -9.23708  -5.44761 
 C-CT--0.3868          4.07551  -10.47237  -4.77642 
 O-O--0.6323           4.67782  -9.12501  -6.64108 
 C-C-0.7903            4.01022  -6.38267  -5.70937 
 O-O--0.6136           2.93712  -6.72377  -5.2898 
 N-N--0.5650           4.13773  -5.4646   -6.69165 
 C-CT--0.3231          2.96624  -4.97296  -7.38743 
 N-N--0.7191           3.99741   1.07028  -0.42545 
 C-C-0.8539            3.58702   2.26716  -0.93409 
 C-CT--0.3903          4.32815   2.72766  -2.17214 
 O-O--0.6290           2.69713   2.90543  -0.4474 
 H-H1-0.1459          -0.40326   1.00615   0. 
 H-H1-0.1459          -0.36496  -0.516     0.87594 
 H-H1-0.1459          -0.34566  -0.52209  -0.88335 
 H-H-0.3572            1.90424   0.07091  -0.87936 
 H-HC-0.0997           3.93214   1.22176   2.98008 
 H-HC-0.0997           5.28092   1.59593   1.9075 
 H-HC-0.0997           3.79271   2.54059   1.8484 
 H-HC-0.0347           4.52967  -0.95227   2.0792 
 H-HC-0.0347           5.26515  -0.77887   0.51334 
 H-HC-0.0243           3.94023  -2.89664   1.07367 
 H-HC-0.0243           2.48424  -1.96983   0.8944 
 H-HC-0.0171           2.99935  -1.58568  -1.49722 
 H-HC-0.0171           2.92439  -3.2648   -1.08531 
 H-HA-0.1313           5.41     -1.6417   -1.79466 
 H-HA-0.1359           6.50846  -3.63252  -2.20376 
 H-HC-0.0092           4.20883  -5.06848  -0.78567 
 H-HC-0.0092           5.81764  -5.66793  -1.04859 
 H-HC-0.0318           4.12353  -6.79249  -2.44337 
 H-HC-0.0318           3.68508  -5.29286  -3.18972 
 H-HC-0.0435           6.50248  -6.44805  -3.34256 
 H-HC-0.0435           5.91247  -5.04391  -4.18714 
 H-HC-0.1066           7.36614  -7.35153  -5.45251 
 H-HC-0.1066           6.83979  -5.85677  -6.1906 
 H-HC-0.1066           6.36307  -7.40985  -6.88808 
 H-H-0.3529            4.73888  -8.35233  -3.66117 
 H-HC-0.1047           4.1057   -11.29659  -5.4727 
 H-HC-0.1047           3.04121  -10.28328  -4.50516 
 H-HC-0.1047           4.62429  -10.72995  -3.87705 
 H-H-0.3615            5.00872  -5.39397  -7.1625 
 H-H1-0.1469           3.26697  -4.16639  -8.04311 
 H-H1-0.1469           2.2485   -4.59732  -6.67302 
 H-H1-0.1469           2.49021  -5.75168  -7.97458 
 H-H-0.3570            4.82812   0.68479  -0.81644 
 H-HC-0.1060           3.71017   3.4346   -2.70629 
 H-HC-0.1060           4.58817   1.90253  -2.82568 
 H-HC-0.1060           5.24477   3.2262   -1.87372 
 
 The following ModRedundant input section has been read:
 D    *    5    7    * F                                                       
 Stoichiometry    C20H36N4O4
 Framework group  C1[X(C20H36N4O4)]
 Deg. of freedom   186
 Full point group                 C1      NOp   1
 Largest Abelian subgroup         C1      NOp   1
 Largest concise Abelian subgroup C1      NOp   1
                         Standard orientation:                         
 ---------------------------------------------------------------------
 Center     Atomic      Atomic             Coordinates (Angstroms)
 Number     Number       Type             X           Y           Z
 ---------------------------------------------------------------------
      1          6    20001001        4.566592    0.047136    3.213391
      2          7    20001014        4.340917   -0.054043    1.786479
      3          6    20001002        5.215961   -0.736429    1.011394
      4          8    20001024        6.058774   -1.456817    1.470148
      5          6    90000001        4.992022   -0.652664   -0.509204
      6          6    90000002        6.276111   -1.058593   -1.240080
      7          6    90000002        3.794493   -1.550519   -0.923188
      8          6    90000002        2.649931   -1.778693    0.080579
      9          6    90000002        1.555843   -0.696776    0.175761
     10          6    20001004        0.864097   -0.405009   -1.135208
     11          6    20001004       -0.298371   -0.876695   -1.555847
     12          6    90000002       -1.221514   -1.825132   -0.829193
     13          6    90000002       -2.442551   -1.148451   -0.180551
     14          6    90000002       -3.345821   -0.448838   -1.205029
     15          6    90000002       -4.701372    0.120367   -0.711942
     16          6    90000002       -5.375215    0.816017   -1.905867
     17          7    20001014       -5.533810   -0.987297   -0.262879
     18          6    20001002       -6.730292   -0.774035    0.358418
     19          6    20001001       -7.288262   -1.970198    1.095080
     20          8    20001024       -7.301966    0.280148    0.326389
     21          6    20001002       -4.435337    1.046832    0.496202
     22          8    20001024       -4.317277    0.585267    1.599356
     23          7    20001014       -4.242068    2.359310    0.243163
     24          6    20001001       -4.038718    3.290481    1.333930
     25          7    20001014        4.587912    0.707555   -0.893821
     26          6    20001002        5.354261    1.814520   -0.677005
     27          6    20001001        4.935793    3.047725   -1.450444
     28          8    20001024        6.284301    1.819029    0.078737
     29          1    20001035        5.455026    0.624841    3.441187
     30          1    20001035        4.681758   -0.940385    3.635601
     31          1    20001035        3.706287    0.523513    3.666486
     32          1    20001029        3.844458    0.686871    1.349603
     33          1    20001034        6.595165   -2.047928   -0.949645
     34          1    20001034        6.102164   -1.042462   -2.311864
     35          1    20001034        7.076720   -0.373196   -1.003055
     36          1    20001034        4.222733   -2.525056   -1.147043
     37          1    20001034        3.389300   -1.174627   -1.857427
     38          1    20001034        2.166176   -2.706467   -0.210692
     39          1    20001034        3.054975   -1.948901    1.072719
     40          1    20001034        1.974709    0.221338    0.566889
     41          1    20001034        0.835104   -1.034360    0.912245
     42          1    20001033        1.389522    0.270605   -1.790638
     43          1    20001033       -0.640195   -0.551973   -2.526142
     44          1    20001034       -0.680277   -2.359341   -0.057733
     45          1    20001034       -1.567450   -2.579678   -1.534589
     46          1    20001034       -2.993223   -1.911220    0.362879
     47          1    20001034       -2.104816   -0.438518    0.562929
     48          1    20001034       -3.575794   -1.138706   -2.014182
     49          1    20001034       -2.796145    0.374433   -1.645976
     50          1    20001034       -5.612045    0.068788   -2.654293
     51          1    20001034       -4.709394    1.538083   -2.367046
     52          1    20001034       -6.293038    1.305363   -1.616248
     53          1    20001029       -5.038738   -1.789595    0.053241
     54          1    20001034       -8.352182   -1.841249    1.223563
     55          1    20001034       -6.822752   -2.021097    2.074791
     56          1    20001034       -7.090550   -2.899978    0.572778
     57          1    20001029       -4.578773    2.730077   -0.613850
     58          1    20001035       -3.784321    4.257331    0.919923
     59          1    20001035       -3.225774    2.949433    1.957978
     60          1    20001035       -4.926404    3.388554    1.950492
     61          1    20001029        3.927136    0.765349   -1.636507
     62          1    20001034        5.318440    3.922893   -0.945830
     63          1    20001034        3.858823    3.124435   -1.549454
     64          1    20001034        5.366144    3.006860   -2.445899
 ---------------------------------------------------------------------
 Rotational constants (GHZ):      0.3421599      0.0521182      0.0507874
 Standard basis: 6-31G(d) (6D, 7F)
 There are   492 symmetry adapted basis functions of A   symmetry.
 Integral buffers will be    131072 words long.
 Raffenetti 1 integral format.
 Two-electron integral symmetry is turned on.
   492 basis functions,   928 primitive gaussians,   492 cartesian basis functions
   108 alpha electrons      108 beta electrons
       nuclear repulsion energy      2697.1099346145 Hartrees.
 NAtoms=   64 NActive=   64 NUniq=   64 SFac= 7.50D-01 NAtFMM=   80 NAOKFM=F Big=T
 One-electron integrals computed using PRISM.
 NBasis=   492 RedAO= T  NBF=   492
 NBsUse=   492 1.00D-06 NBFU=   492
 Harris functional with IExCor=  205 diagonalized for initial guess.
 ExpMin= 1.61D-01 ExpMax= 5.48D+03 ExpMxC= 8.25D+02 IAcc=1 IRadAn=         1 AccDes= 0.00D+00
 HarFok:  IExCor=  205 AccDes= 0.00D+00 IRadAn=         1 IDoV= 1
 ScaDFX=  1.000000  1.000000  1.000000  1.000000
 FoFCou: FMM=F IPFlag=           0 FMFlag=      100000 FMFlg1=           1
         NFxFlg=           0 DoJE=T BraDBF=F KetDBF=T FulRan=T
         Omega=  0.000000  0.000000  1.000000  0.000000  0.000000 ICntrl=     500 IOpCl=  0
         NMat0=    1 NMatS0=    1 NMatT0=    0 NMatD0=    1 NMtDS0=    0 NMtDT0=    0
         I1Cent=           4 NGrid=           0.
 Petite list used in FoFCou.
 Initial guess orbital symmetries:
       Occupied  (A) (A) (A) (A) (A) (A) (A) (A) (A) (A) (A) (A)
                 (A) (A) (A) (A) (A) (A) (A) (A) (A) (A) (A) (A)
                 (A) (A) (A) (A) (A) (A) (A) (A) (A) (A) (A) (A)
                 (A) (A) (A) (A) (A) (A) (A) (A) (A) (A) (A) (A)
                 (A) (A) (A) (A) (A) (A) (A) (A) (A) (A) (A) (A)
                 (A) (A) (A) (A) (A) (A) (A) (A) (A) (A) (A) (A)
                 (A) (A) (A) (A) (A) (A) (A) (A) (A) (A) (A) (A)
                 (A) (A) (A) (A) (A) (A) (A) (A) (A) (A) (A) (A)
                 (A) (A) (A) (A) (A) (A) (A) (A) (A) (A) (A) (A)
       Virtual   (A) (A) (A) (A) (A) (A) (A) (A) (A) (A) (A) (A)
                 (A) (A) (A) (A) (A) (A) (A) (A) (A) (A) (A) (A)
                 (A) (A) (A) (A) (A) (A) (A) (A) (A) (A) (A) (A)
                 (A) (A) (A) (A) (A) (A) (A) (A) (A) (A) (A) (A)
                 (A) (A) (A) (A) (A) (A) (A) (A) (A) (A) (A) (A)
                 (A) (A) (A) (A) (A) (A) (A) (A) (A) (A) (A) (A)
                 (A) (A) (A) (A) (A) (A) (A) (A) (A) (A) (A) (A)
                 (A) (A) (A) (A) (A) (A) (A) (A) (A) (A) (A) (A)
                 (A) (A) (A) (A) (A) (A) (A) (A) (A) (A) (A) (A)
                 (A) (A) (A) (A) (A) (A) (A) (A) (A) (A) (A) (A)
                 (A) (A) (A) (A) (A) (A) (A) (A) (A) (A) (A) (A)
                 (A) (A) (A) (A) (A) (A) (A) (A) (A) (A) (A) (A)
                 (A) (A) (A) (A) (A) (A) (A) (A) (A) (A) (A) (A)
                 (A) (A) (A) (A) (A) (A) (A) (A) (A) (A) (A) (A)
                 (A) (A) (A) (A) (A) (A) (A) (A) (A) (A) (A) (A)
                 (A) (A) (A) (A) (A) (A) (A) (A) (A) (A) (A) (A)
                 (A) (A) (A) (A) (A) (A) (A) (A) (A) (A) (A) (A)
                 (A) (A) (A) (A) (A) (A) (A) (A) (A) (A) (A) (A)
                 (A) (A) (A) (A) (A) (A) (A) (A) (A) (A) (A) (A)
                 (A) (A) (A) (A) (A) (A) (A) (A) (A) (A) (A) (A)
                 (A) (A) (A) (A) (A) (A) (A) (A) (A) (A) (A) (A)
                 (A) (A) (A) (A) (A) (A) (A) (A) (A) (A) (A) (A)
                 (A) (A) (A) (A) (A) (A) (A) (A) (A) (A) (A) (A)
                 (A) (A) (A) (A) (A) (A) (A) (A) (A) (A) (A) (A)
                 (A) (A) (A) (A) (A) (A) (A) (A) (A) (A) (A) (A)
                 (A) (A) (A) (A) (A) (A) (A) (A) (A) (A) (A) (A)
                 (A) (A) (A) (A) (A) (A) (A) (A) (A) (A) (A) (A)
                 (A) (A) (A) (A) (A) (A) (A) (A) (A) (A) (A) (A)
                 (A) (A) (A) (A) (A) (A) (A) (A) (A) (A) (A) (A)
                 (A) (A) (A) (A) (A) (A) (A) (A) (A) (A) (A) (A)
                 (A) (A) (A) (A) (A) (A) (A) (A) (A) (A) (A) (A)
                 (A) (A) (A) (A) (A) (A) (A) (A) (A) (A) (A) (A)
 The electronic state of the initial guess is 1-A.
 Requested convergence on RMS density matrix=1.00D-08 within 128 cycles.
 Requested convergence on MAX density matrix=1.00D-06.
 Requested convergence on             energy=1.00D-06.
 No special actions if energy rises.
 Integral accuracy reduced to 1.0D-05 until final iterations.
 Initial convergence to 1.0D-05 achieved.  Increase integral accuracy.
 SCF Done:  E(RHF) =  -1295.61246191     A.U. after   14 cycles
             Convg  =    0.6670D-08             -V/T =  2.0012

 **********************************************************************

            Population analysis using the SCF density.

 **********************************************************************

 Orbital symmetries:
       Occupied  (A) (A) (A) (A) (A) (A) (A) (A) (A) (A) (A) (A)
                 (A) (A) (A) (A) (A) (A) (A) (A) (A) (A) (A) (A)
                 (A) (A) (A) (A) (A) (A) (A) (A) (A) (A) (A) (A)
                 (A) (A) (A) (A) (A) (A) (A) (A) (A) (A) (A) (A)
                 (A) (A) (A) (A) (A) (A) (A) (A) (A) (A) (A) (A)
                 (A) (A) (A) (A) (A) (A) (A) (A) (A) (A) (A) (A)
                 (A) (A) (A) (A) (A) (A) (A) (A) (A) (A) (A) (A)
                 (A) (A) (A) (A) (A) (A) (A) (A) (A) (A) (A) (A)
                 (A) (A) (A) (A) (A) (A) (A) (A) (A) (A) (A) (A)
       Virtual   (A) (A) (A) (A) (A) (A) (A) (A) (A) (A) (A) (A)
                 (A) (A) (A) (A) (A) (A) (A) (A) (A) (A) (A) (A)
                 (A) (A) (A) (A) (A) (A) (A) (A) (A) (A) (A) (A)
                 (A) (A) (A) (A) (A) (A) (A) (A) (A) (A) (A) (A)
                 (A) (A) (A) (A) (A) (A) (A) (A) (A) (A) (A) (A)
                 (A) (A) (A) (A) (A) (A) (A) (A) (A) (A) (A) (A)
                 (A) (A) (A) (A) (A) (A) (A) (A) (A) (A) (A) (A)
                 (A) (A) (A) (A) (A) (A) (A) (A) (A) (A) (A) (A)
                 (A) (A) (A) (A) (A) (A) (A) (A) (A) (A) (A) (A)
                 (A) (A) (A) (A) (A) (A) (A) (A) (A) (A) (A) (A)
                 (A) (A) (A) (A) (A) (A) (A) (A) (A) (A) (A) (A)
                 (A) (A) (A) (A) (A) (A) (A) (A) (A) (A) (A) (A)
                 (A) (A) (A) (A) (A) (A) (A) (A) (A) (A) (A) (A)
                 (A) (A) (A) (A) (A) (A) (A) (A) (A) (A) (A) (A)
                 (A) (A) (A) (A) (A) (A) (A) (A) (A) (A) (A) (A)
                 (A) (A) (A) (A) (A) (A) (A) (A) (A) (A) (A) (A)
                 (A) (A) (A) (A) (A) (A) (A) (A) (A) (A) (A) (A)
                 (A) (A) (A) (A) (A) (A) (A) (A) (A) (A) (A) (A)
                 (A) (A) (A) (A) (A) (A) (A) (A) (A) (A) (A) (A)
                 (A) (A) (A) (A) (A) (A) (A) (A) (A) (A) (A) (A)
                 (A) (A) (A) (A) (A) (A) (A) (A) (A) (A) (A) (A)
                 (A) (A) (A) (A) (A) (A) (A) (A) (A) (A) (A) (A)
                 (A) (A) (A) (A) (A) (A) (A) (A) (A) (A) (A) (A)
                 (A) (A) (A) (A) (A) (A) (A) (A) (A) (A) (A) (A)
                 (A) (A) (A) (A) (A) (A) (A) (A) (A) (A) (A) (A)
                 (A) (A) (A) (A) (A) (A) (A) (A) (A) (A) (A) (A)
                 (A) (A) (A) (A) (A) (A) (A) (A) (A) (A) (A) (A)
                 (A) (A) (A) (A) (A) (A) (A) (A) (A) (A) (A) (A)
                 (A) (A) (A) (A) (A) (A) (A) (A) (A) (A) (A) (A)
                 (A) (A) (A) (A) (A) (A) (A) (A) (A) (A) (A) (A)
                 (A) (A) (A) (A) (A) (A) (A) (A) (A) (A) (A) (A)
                 (A) (A) (A) (A) (A) (A) (A) (A) (A) (A) (A) (A)
 The electronic state is 1-A.
 Alpha  occ. eigenvalues --  -20.53566 -20.52474 -20.52184 -20.51757 -15.59488
 Alpha  occ. eigenvalues --  -15.58500 -15.58000 -15.57036 -11.35820 -11.34677
 Alpha  occ. eigenvalues --  -11.34262 -11.33649 -11.29129 -11.28920 -11.25609
 Alpha  occ. eigenvalues --  -11.24683 -11.24308 -11.24061 -11.23892 -11.23593
 Alpha  occ. eigenvalues --  -11.23433 -11.23380 -11.23119 -11.23118 -11.22872
 Alpha  occ. eigenvalues --  -11.22680 -11.22304 -11.20837  -1.40486  -1.39875
 Alpha  occ. eigenvalues --   -1.38602  -1.38509  -1.25375  -1.24043  -1.23209
 Alpha  occ. eigenvalues --   -1.21906  -1.11607  -1.09577  -1.07746  -1.04848
 Alpha  occ. eigenvalues --   -1.01637  -0.99720  -0.99185  -0.95724  -0.95343
 Alpha  occ. eigenvalues --   -0.95121  -0.92637  -0.87272  -0.86059  -0.83547
 Alpha  occ. eigenvalues --   -0.81969  -0.80022  -0.79410  -0.77425  -0.77072
 Alpha  occ. eigenvalues --   -0.72871  -0.71866  -0.71114  -0.68875  -0.68666
 Alpha  occ. eigenvalues --   -0.67565  -0.65481  -0.65060  -0.64556  -0.64261
 Alpha  occ. eigenvalues --   -0.62646  -0.62450  -0.61945  -0.61808  -0.61498
 Alpha  occ. eigenvalues --   -0.60555  -0.60099  -0.59369  -0.59156  -0.59047
 Alpha  occ. eigenvalues --   -0.58904  -0.57885  -0.57063  -0.56965  -0.56434
 Alpha  occ. eigenvalues --   -0.55673  -0.55540  -0.55296  -0.54782  -0.54451
 Alpha  occ. eigenvalues --   -0.53769  -0.53215  -0.52857  -0.52236  -0.52061
 Alpha  occ. eigenvalues --   -0.51262  -0.50566  -0.50293  -0.49676  -0.49311
 Alpha  occ. eigenvalues --   -0.48519  -0.47456  -0.47015  -0.45645  -0.42775
 Alpha  occ. eigenvalues --   -0.42049  -0.41852  -0.41503  -0.39378  -0.39040
 Alpha  occ. eigenvalues --   -0.38858  -0.38027  -0.35673
 Alpha virt. eigenvalues --    0.15988   0.18197   0.18940   0.19156   0.20705
 Alpha virt. eigenvalues --    0.21103   0.21476   0.22439   0.22909   0.23723
 Alpha virt. eigenvalues --    0.24589   0.25694   0.25820   0.26733   0.27060
 Alpha virt. eigenvalues --    0.27328   0.27711   0.28333   0.28886   0.29429
 Alpha virt. eigenvalues --    0.29863   0.30708   0.30887   0.31324   0.31634
 Alpha virt. eigenvalues --    0.32059   0.32751   0.32842   0.33109   0.33331
 Alpha virt. eigenvalues --    0.33899   0.34082   0.34170   0.34683   0.34971
 Alpha virt. eigenvalues --    0.35157   0.35708   0.36107   0.36447   0.37297
 Alpha virt. eigenvalues --    0.37753   0.37963   0.38490   0.38984   0.39803
 Alpha virt. eigenvalues --    0.40338   0.41191   0.41858   0.42643   0.43032
 Alpha virt. eigenvalues --    0.43677   0.44385   0.44689   0.45240   0.46690
 Alpha virt. eigenvalues --    0.47858   0.48665   0.51476   0.51721   0.52542
 Alpha virt. eigenvalues --    0.53302   0.54906   0.57257   0.57962   0.59148
 Alpha virt. eigenvalues --    0.61555   0.63472   0.64112   0.68265   0.69351
 Alpha virt. eigenvalues --    0.70626   0.70782   0.71313   0.72122   0.72295
 Alpha virt. eigenvalues --    0.73854   0.74071   0.74883   0.75455   0.75995
 Alpha virt. eigenvalues --    0.76159   0.77307   0.77822   0.78134   0.78633
 Alpha virt. eigenvalues --    0.78825   0.79887   0.80231   0.81418   0.82190
 Alpha virt. eigenvalues --    0.83273   0.83684   0.84432   0.84942   0.85439
 Alpha virt. eigenvalues --    0.86447   0.87331   0.88339   0.89872   0.90405
 Alpha virt. eigenvalues --    0.90797   0.91516   0.91961   0.92108   0.93279
 Alpha virt. eigenvalues --    0.93982   0.95154   0.96204   0.96779   0.97607
 Alpha virt. eigenvalues --    0.98155   0.98660   0.99219   0.99837   1.00131
 Alpha virt. eigenvalues --    1.01393   1.01502   1.02116   1.02894   1.03100
 Alpha virt. eigenvalues --    1.03422   1.03931   1.06302   1.06691   1.07046
 Alpha virt. eigenvalues --    1.07626   1.08392   1.09409   1.09878   1.10114
 Alpha virt. eigenvalues --    1.12055   1.12385   1.12920   1.13658   1.13787
 Alpha virt. eigenvalues --    1.13870   1.14389   1.14643   1.14749   1.14846
 Alpha virt. eigenvalues --    1.15429   1.16225   1.16589   1.17074   1.17301
 Alpha virt. eigenvalues --    1.17700   1.17992   1.18516   1.19001   1.19141
 Alpha virt. eigenvalues --    1.19577   1.19903   1.20545   1.20680   1.21210
 Alpha virt. eigenvalues --    1.21484   1.21929   1.22123   1.22312   1.22840
 Alpha virt. eigenvalues --    1.23110   1.23603   1.24397   1.25109   1.25453
 Alpha virt. eigenvalues --    1.26514   1.26895   1.27751   1.28236   1.28532
 Alpha virt. eigenvalues --    1.29087   1.29370   1.30094   1.30640   1.30759
 Alpha virt. eigenvalues --    1.32279   1.33822   1.35223   1.35830   1.38148
 Alpha virt. eigenvalues --    1.39142   1.40101   1.40395   1.41234   1.42138
 Alpha virt. eigenvalues --    1.44022   1.44774   1.46043   1.46651   1.47886
 Alpha virt. eigenvalues --    1.49050   1.50688   1.51716   1.53880   1.54429
 Alpha virt. eigenvalues --    1.57265   1.57655   1.58150   1.60154   1.61076
 Alpha virt. eigenvalues --    1.61238   1.64193   1.64586   1.66127   1.68580
 Alpha virt. eigenvalues --    1.69116   1.70681   1.71455   1.72168   1.72993
 Alpha virt. eigenvalues --    1.73820   1.74734   1.77731   1.78343   1.79015
 Alpha virt. eigenvalues --    1.79937   1.82007   1.82636   1.85622   1.88897
 Alpha virt. eigenvalues --    1.89135   1.90573   1.91910   1.93905   1.94552
 Alpha virt. eigenvalues --    1.95697   1.97307   1.97964   1.99910   2.02982
 Alpha virt. eigenvalues --    2.03709   2.04459   2.06292   2.06829   2.07397
 Alpha virt. eigenvalues --    2.08375   2.10235   2.11071   2.11795   2.12780
 Alpha virt. eigenvalues --    2.13523   2.14106   2.14318   2.14398   2.15664
 Alpha virt. eigenvalues --    2.15858   2.16627   2.17699   2.18016   2.19258
 Alpha virt. eigenvalues --    2.20142   2.20332   2.21414   2.22089   2.22511
 Alpha virt. eigenvalues --    2.23697   2.24825   2.25439   2.26571   2.26886
 Alpha virt. eigenvalues --    2.27597   2.29001   2.29575   2.30295   2.32264
 Alpha virt. eigenvalues --    2.32713   2.33495   2.33795   2.34494   2.36109
 Alpha virt. eigenvalues --    2.36382   2.36776   2.38297   2.38592   2.38699
 Alpha virt. eigenvalues --    2.39625   2.40203   2.41523   2.42859   2.43635
 Alpha virt. eigenvalues --    2.45148   2.46325   2.47881   2.49028   2.49777
 Alpha virt. eigenvalues --    2.51282   2.53422   2.54268   2.54756   2.55771
 Alpha virt. eigenvalues --    2.56480   2.56862   2.58406   2.59269   2.60209
 Alpha virt. eigenvalues --    2.61942   2.62613   2.63858   2.64487   2.64975
 Alpha virt. eigenvalues --    2.66792   2.67502   2.68729   2.69725   2.71004
 Alpha virt. eigenvalues --    2.71869   2.73291   2.73628   2.74521   2.75835
 Alpha virt. eigenvalues --    2.76693   2.77443   2.78073   2.79002   2.79891
 Alpha virt. eigenvalues --    2.80801   2.82081   2.83007   2.85121   2.85821
 Alpha virt. eigenvalues --    2.87395   2.88605   2.90914   2.91809   2.95249
 Alpha virt. eigenvalues --    2.96614   2.97462   2.98310   2.98839   3.01418
 Alpha virt. eigenvalues --    3.02695   3.04642   3.04875   3.05824   3.09094
 Alpha virt. eigenvalues --    3.10436   3.10659   3.12358   3.12699   3.15076
 Alpha virt. eigenvalues --    3.15551   3.17653   3.20914   3.28259   3.30070
 Alpha virt. eigenvalues --    3.33879   3.35237   3.38371   3.39893   3.40394
 Alpha virt. eigenvalues --    3.42177   3.42509   3.53505   3.55170   3.57095
 Alpha virt. eigenvalues --    3.59939   4.37875   4.42342   4.46803   4.48029
 Alpha virt. eigenvalues --    4.48665   4.51431   4.54406   4.56999   4.60629
 Alpha virt. eigenvalues --    4.62950   4.65850   4.66946   4.69456   4.69606
 Alpha virt. eigenvalues --    4.72752   4.74967   4.77510   4.82851   4.85074
 Alpha virt. eigenvalues --    4.88286   4.88823   4.93471   4.96437   4.99095
 Alpha virt. eigenvalues --    5.02358   5.07320   5.23000   5.25224
          Condensed to atoms (all electrons):
 Mulliken atomic charges:
              1
     1  C   -0.277644
     2  N   -0.780278
     3  C    0.789129
     4  O   -0.618291
     5  C    0.117714
     6  C   -0.473855
     7  C   -0.342199
     8  C   -0.317962
     9  C   -0.341782
    10  C   -0.173274
    11  C   -0.170648
    12  C   -0.357004
    13  C   -0.311524
    14  C   -0.329570
    15  C    0.091228
    16  C   -0.509738
    17  N   -0.787353
    18  C    0.767074
    19  C   -0.595870
    20  O   -0.613444
    21  C    0.820054
    22  O   -0.639194
    23  N   -0.806758
    24  C   -0.275304
    25  N   -0.845465
    26  C    0.743770
    27  C   -0.590093
    28  O   -0.591070
    29  H    0.185948
    30  H    0.196904
    31  H    0.162782
    32  H    0.398835
    33  H    0.197140
    34  H    0.145007
    35  H    0.211932
    36  H    0.193197
    37  H    0.161405
    38  H    0.167283
    39  H    0.205325
    40  H    0.153293
    41  H    0.179742
    42  H    0.153063
    43  H    0.174894
    44  H    0.180594
    45  H    0.165972
    46  H    0.154801
    47  H    0.196982
    48  H    0.175430
    49  H    0.182823
    50  H    0.184960
    51  H    0.147672
    52  H    0.227837
    53  H    0.389864
    54  H    0.212269
    55  H    0.209479
    56  H    0.177123
    57  H    0.396018
    58  H    0.164900
    59  H    0.196917
    60  H    0.186988
    61  H    0.386461
    62  H    0.218732
    63  H    0.176033
    64  H    0.200745
 Sum of Mulliken atomic charges =   0.00000
 Mulliken charges with hydrogens summed into heavy atoms:
              1
     1  C    0.267990
     2  N   -0.381443
     3  C    0.789129
     4  O   -0.618291
     5  C    0.117714
     6  C    0.080225
     7  C    0.012403
     8  C    0.054646
     9  C   -0.008747
    10  C   -0.020211
    11  C    0.004246
    12  C   -0.010438
    13  C    0.040258
    14  C    0.028683
    15  C    0.091228
    16  C    0.050730
    17  N   -0.397489
    18  C    0.767074
    19  C    0.003001
    20  O   -0.613444
    21  C    0.820054
    22  O   -0.639194
    23  N   -0.410740
    24  C    0.273502
    25  N   -0.459004
    26  C    0.743770
    27  C    0.005418
    28  O   -0.591070
 Sum of Mulliken charges with hydrogens summed into heavy atoms =   0.00000
 Electronic spatial extent (au):  <R**2>=          21067.4747
 Charge=              0.0000 electrons
 Dipole moment (field-independent basis, Debye):
    X=             -3.0068    Y=              1.1990    Z=             -5.2365  Tot=              6.1563
 Quadrupole moment (field-independent basis, Debye-Ang):
   XX=           -246.8034   YY=           -157.3632   ZZ=           -167.4385
   XY=             16.7947   XZ=             -9.1797   YZ=             -3.0868
 Traceless Quadrupole moment (field-independent basis, Debye-Ang):
   XX=            -56.2684   YY=             33.1718   ZZ=             23.0965
   XY=             16.7947   XZ=             -9.1797   YZ=             -3.0868
 Octapole moment (field-independent basis, Debye-Ang**2):
  XXX=           -206.3990  YYY=             50.5211  ZZZ=             16.4531  XYY=            -81.2387
  XXY=            -45.2892  XXZ=           -154.2412  XZZ=             27.9596  YZZ=             20.7183
  YYZ=             -2.1850  XYZ=             23.6916
 Hexadecapole moment (field-independent basis, Debye-Ang**3):
 XXXX=         -28298.6565 YYYY=          -2383.1691 ZZZZ=          -1815.1124 XXXY=            765.8732
 XXXZ=           -663.2857 YYYX=            -35.1769 YYYZ=             -7.7630 ZZZX=             68.3515
 ZZZY=            -14.3330 XXYY=          -4086.5550 XXZZ=          -4119.8940 YYZZ=           -719.6243
 XXYZ=            -91.6234 YYXZ=           -121.2280 ZZXY=             77.3454
 N-N= 2.697109934614D+03 E-N=-8.425503992109D+03  KE= 1.294063084948D+03
 1\1\GINC-MOSURA\SP\RHF\6-31G(d)\C20H36N4O4\MARIE\05-Dec-2019\0\\#SP HF
 /6-31G* Geom=(ModRedundant)\\paramfit run\\0,1\C,0,0.,0.,0.\N,0,1.4481
 87,0.,0.\C,0,2.1232,0.47592,1.072365\O,0,1.590179,0.696732,2.124447\C,
 0,3.650505,0.594143,0.921539\C,0,4.198902,1.549248,1.986845\C,0,4.3077
 51,-0.809116,1.023981\C,0,3.513032,-2.042046,0.557142\C,0,3.514153,-2.
 364924,-0.950301\C,0,4.893275,-2.552278,-1.537838\C,0,5.521841,-3.6928
 84,-1.771677\C,0,5.015981,-5.090823,-1.507811\C,0,4.519868,-5.832457,-
 2.76217\C,0,5.621176,-6.018897,-3.81444\C,0,5.306804,-6.903396,-5.0487
 33\C,0,6.539594,-6.875192,-5.96682\N,0,5.071447,-8.267098,-4.59436\C,0
 ,4.630828,-9.237083,-5.447614\C,0,4.07551,-10.472367,-4.77642\O,0,4.67
 782,-9.125006,-6.641084\C,0,4.010222,-6.382667,-5.70937\O,0,2.937124,-
 6.723772,-5.289802\N,0,4.137728,-5.464602,-6.691653\C,0,2.966239,-4.97
 296,-7.387429\N,0,3.997412,1.070275,-0.425452\C,0,3.587019,2.267163,-0
 .934086\C,0,4.328148,2.727659,-2.172145\O,0,2.697134,2.905425,-0.44739
 7\H,0,-0.403259,1.006147,0.\H,0,-0.36496,-0.516002,0.875939\H,0,-0.345
 658,-0.522086,-0.883346\H,0,1.904244,0.070913,-0.879357\H,0,3.932135,1
 .22176,2.980082\H,0,5.28092,1.595925,1.9075\H,0,3.792711,2.540594,1.84
 8395\H,0,4.529671,-0.95227,2.079197\H,0,5.265146,-0.778873,0.513335\H,
 0,3.940229,-2.896636,1.073669\H,0,2.484239,-1.969829,0.894401\H,0,2.99
 9353,-1.58568,-1.497222\H,0,2.924389,-3.264805,-1.085313\H,0,5.409996,
 -1.641697,-1.794656\H,0,6.508462,-3.632515,-2.203759\H,0,4.208835,-5.0
 68475,-0.785674\H,0,5.81764,-5.667932,-1.048591\H,0,4.123526,-6.792485
 ,-2.443371\H,0,3.68508,-5.292861,-3.189717\H,0,6.502478,-6.448045,-3.3
 42557\H,0,5.912469,-5.043912,-4.187138\H,0,7.366137,-7.351528,-5.45251
 3\H,0,6.839793,-5.85677,-6.190604\H,0,6.363067,-7.409846,-6.888081\H,0
 ,4.738876,-8.352327,-3.66117\H,0,4.105698,-11.296587,-5.472704\H,0,3.0
 41205,-10.283277,-4.505157\H,0,4.624289,-10.729946,-3.877045\H,0,5.008
 717,-5.393973,-7.162503\H,0,3.266971,-4.166385,-8.04311\H,0,2.248503,-
 4.597324,-6.67302\H,0,2.490213,-5.751678,-7.974584\H,0,4.82812,0.68478
 5,-0.816437\H,0,3.710173,3.434604,-2.706288\H,0,4.588171,1.902533,-2.8
 25678\H,0,5.244771,3.226201,-1.873716\\Version=EM64L-G09RevA.02\State=
 1-A\HF=-1295.6124619\RMSD=6.670e-09\Dipole=2.181326,-0.3658956,-0.9870
 91\Quadrupole=13.6354647,-6.8209023,-6.8145624,12.0272854,8.4143936,-3
 4.3431918\PG=C01 [X(C20H36N4O4)]\\@


 HE THAT FOLLOWS NATURE IS NEVER LOST.

                             -- BACON
 Job cpu time:  0 days  0 hours  5 minutes 12.7 seconds.
 File lengths (MBytes):  RWF=    132 Int=      0 D2E=      0 Chk=     10 Scr=      1
 Normal termination of Gaussian 09 at Thu Dec  5 16:47:40 2019.
