 Entering Gaussian System, Link 0=g09
 Input=CHI2_20.gau
 Output=CHI2_20.log
 Initial command:
 /home/marie/Utilities//g09/l1.exe /tmp/g09/Gau-8978.inp -scrdir=/tmp/g09/
 Entering Link 1 = /home/marie/Utilities//g09/l1.exe PID=      8980.
  
 Copyright (c) 1988,1990,1992,1993,1995,1998,2003,2009, Gaussian, Inc.
                  All Rights Reserved.
  
 This is part of the Gaussian(R) 09 program.  It is based on
 the Gaussian(R) 03 system (copyright 2003, Gaussian, Inc.),
 the Gaussian(R) 98 system (copyright 1998, Gaussian, Inc.),
 the Gaussian(R) 94 system (copyright 1995, Gaussian, Inc.),
 the Gaussian 92(TM) system (copyright 1992, Gaussian, Inc.),
 the Gaussian 90(TM) system (copyright 1990, Gaussian, Inc.),
 the Gaussian 88(TM) system (copyright 1988, Gaussian, Inc.),
 the Gaussian 86(TM) system (copyright 1986, Carnegie Mellon
 University), and the Gaussian 82(TM) system (copyright 1983,
 Carnegie Mellon University). Gaussian is a federally registered
 trademark of Gaussian, Inc.
  
 This software contains proprietary and confidential information,
 including trade secrets, belonging to Gaussian, Inc.
  
 This software is provided under written license and may be
 used, copied, transmitted, or stored only in accord with that
 written license.
  
 The following legend is applicable only to US Government
 contracts under FAR:
  
                    RESTRICTED RIGHTS LEGEND
  
 Use, reproduction and disclosure by the US Government is
 subject to restrictions as set forth in subparagraphs (a)
 and (c) of the Commercial Computer Software - Restricted
 Rights clause in FAR 52.227-19.
  
 Gaussian, Inc.
 340 Quinnipiac St., Bldg. 40, Wallingford CT 06492
  
  
 ---------------------------------------------------------------
 Warning -- This program may not be used in any manner that
 competes with the business of Gaussian, Inc. or will provide
 assistance to any competitor of Gaussian, Inc.  The licensee
 of this program is prohibited from giving any competitor of
 Gaussian, Inc. access to this program.  By using this program,
 the user acknowledges that Gaussian, Inc. is engaged in the
 business of creating and licensing software in the field of
 computational chemistry and represents and warrants to the
 licensee that it is not a competitor of Gaussian, Inc. and that
 it will not use this program in any manner prohibited above.
 ---------------------------------------------------------------
  

 Cite this work as:
 Gaussian 09, Revision A.02,
 M. J. Frisch, G. W. Trucks, H. B. Schlegel, G. E. Scuseria, 
 M. A. Robb, J. R. Cheeseman, G. Scalmani, V. Barone, B. Mennucci, 
 G. A. Petersson, H. Nakatsuji, M. Caricato, X. Li, H. P. Hratchian, 
 A. F. Izmaylov, J. Bloino, G. Zheng, J. L. Sonnenberg, M. Hada, 
 M. Ehara, K. Toyota, R. Fukuda, J. Hasegawa, M. Ishida, T. Nakajima, 
 Y. Honda, O. Kitao, H. Nakai, T. Vreven, J. A. Montgomery, Jr., 
 J. E. Peralta, F. Ogliaro, M. Bearpark, J. J. Heyd, E. Brothers, 
 K. N. Kudin, V. N. Staroverov, R. Kobayashi, J. Normand, 
 K. Raghavachari, A. Rendell, J. C. Burant, S. S. Iyengar, J. Tomasi, 
 M. Cossi, N. Rega, J. M. Millam, M. Klene, J. E. Knox, J. B. Cross, 
 V. Bakken, C. Adamo, J. Jaramillo, R. Gomperts, R. E. Stratmann, 
 O. Yazyev, A. J. Austin, R. Cammi, C. Pomelli, J. W. Ochterski, 
 R. L. Martin, K. Morokuma, V. G. Zakrzewski, G. A. Voth, 
 P. Salvador, J. J. Dannenberg, S. Dapprich, A. D. Daniels, 
 O. Farkas, J. B. Foresman, J. V. Ortiz, J. Cioslowski, 
 and D. J. Fox, Gaussian, Inc., Wallingford CT, 2009.
 
 ******************************************
 Gaussian 09:  EM64L-G09RevA.02 11-Jun-2009
                 5-Dec-2019 
 ******************************************
 %chk=CHI2_20
 %NoSave
 ---------------------------------
 #SP HF/6-31G* Geom=(ModRedundant)
 ---------------------------------
 1/18=120,38=1/1;
 2/12=2,17=6,18=5,40=1/2;
 3/5=1,6=6,7=1,11=9,16=1,25=1,30=1/1,2,3;
 4//1;
 5/5=2,38=5/2;
 6/7=2,8=2,9=2,10=2,28=1/1;
 99/5=1,9=1/99;
 ------------
 paramfit run
 ------------
 Symbolic Z-matrix:
 Charge =  0 Multiplicity = 1
 C-CT--0.3208          0.        0.        0. 
 N-N--0.5622           1.44819   0.        0. 
 C-C-0.8053            2.1232    0.47592   1.07237 
 O-O--0.6151           1.59018   0.69673   2.12445 
 C-CX-0.0839           3.65051   0.59414   0.92154 
 C-CU--0.3230          4.1989    1.54925   1.98685 
 C-CU--0.0657          4.30775  -0.80912   1.02398 
 C-CU--0.0109          4.13357  -1.62278   2.31907 
 C-CU-0.0816           2.96339  -1.2452    3.24899 
 C-CM--0.2354          1.60867  -1.29088   2.58195 
 C-CM--0.2653          0.71747  -2.26756   2.6329 
 C-CU-0.1214           0.83471  -3.5799    3.37032 
 C-CU--0.0354          0.04511  -3.63768   4.69046 
 C-CU--0.0984         -1.46419  -3.44954   4.48666 
 C-CU-0.1300          -2.39595  -3.66175   5.7079 
 C-CU--0.3561         -3.83269  -3.35463   5.25522 
 N-N--0.7186          -2.30568  -5.05475   6.12375 
 C-C-0.8537           -2.90833  -5.49879   7.26511 
 C-CT--0.3868         -2.42218  -6.84099   7.76205 
 O-O--0.6323          -3.7604   -4.8766    7.83608 
 C-C-0.7903           -1.89265  -2.77597   6.87014 
 O-O--0.6136          -1.00295  -3.15796   7.5818 
 N-N--0.5650          -2.41746  -1.53644   6.98016 
 C-CT--0.3231         -2.02746  -0.6736    8.07634 
 N-N--0.7191           3.99741   1.07028  -0.42545 
 C-C-0.8539            3.58702   2.26716  -0.93409 
 C-CT--0.3903          4.32815   2.72766  -2.17214 
 O-O--0.6290           2.69713   2.90543  -0.4474 
 H-H1-0.1459          -0.40326   1.00615   0. 
 H-H1-0.1459          -0.36496  -0.516     0.87594 
 H-H1-0.1459          -0.34566  -0.52209  -0.88335 
 H-H-0.3572            1.90424   0.07091  -0.87936 
 H-HC-0.0997           3.93214   1.22176   2.98008 
 H-HC-0.0997           5.28092   1.59593   1.9075 
 H-HC-0.0997           3.79271   2.54059   1.8484 
 H-HC-0.0347           5.37458  -0.64325   0.89141 
 H-HC-0.0347           3.98464  -1.40332   0.17498 
 H-HC-0.0243           3.98859  -2.65559   2.01592 
 H-HC-0.0243           5.05281  -1.60432   2.89529 
 H-HC-0.0171           3.12134  -0.25738   3.66205 
 H-HC-0.0171           2.98962  -1.92893   4.09021 
 H-HA-0.1313           1.35188  -0.41729   2.00487 
 H-HA-0.1359          -0.2052   -2.12171   2.09329 
 H-HC-0.0092           1.87349  -3.79803   3.5867 
 H-HC-0.0092           0.48776  -4.37748   2.71451 
 H-HC-0.0318           0.25533  -4.59477   5.15967 
 H-HC-0.0318           0.42529  -2.88421   5.36765 
 H-HC-0.0435          -1.81119  -4.12875   3.71091 
 H-HC-0.0435          -1.64159  -2.4448    4.12145 
 H-HC-0.1066          -4.12767  -4.08917   4.51494 
 H-HC-0.1066          -3.89699  -2.3778    4.78719 
 H-HC-0.1066          -4.52984  -3.40692   6.07801 
 H-H-0.3529           -1.44967  -5.50949   5.90201 
 H-HC-0.1047          -3.17232  -7.27149   8.40781 
 H-HC-0.1047          -1.51361  -6.68864   8.33686 
 H-HC-0.1047          -2.2024   -7.5227    6.94758 
 H-H-0.3615           -3.29104  -1.35275   6.54608 
 H-H1-0.1469          -2.46088   0.30498   7.91681 
 H-H1-0.1469          -0.95158  -0.58226   8.10373 
 H-H1-0.1469          -2.36313  -1.06104   9.03288 
 H-H-0.3570            4.82812   0.68479  -0.81644 
 H-HC-0.1060           3.71017   3.4346   -2.70629 
 H-HC-0.1060           4.58817   1.90253  -2.82568 
 H-HC-0.1060           5.24477   3.2262   -1.87372 
 
 The following ModRedundant input section has been read:
 D    *    7    8    * F                                                       
 Stoichiometry    C20H36N4O4
 Framework group  C1[X(C20H36N4O4)]
 Deg. of freedom   186
 Full point group                 C1      NOp   1
 Largest Abelian subgroup         C1      NOp   1
 Largest concise Abelian subgroup C1      NOp   1
                         Standard orientation:                         
 ---------------------------------------------------------------------
 Center     Atomic      Atomic             Coordinates (Angstroms)
 Number     Number       Type             X           Y           Z
 ---------------------------------------------------------------------
      1          6    20001001        2.702874    1.265866   -2.338514
      2          7    20001014        3.512321    0.371443   -1.537235
      3          6    20001002        3.431202    0.414888   -0.186813
      4          8    20001024        2.558021    1.003229    0.388649
      5          6    90000001        4.443779   -0.448318    0.587106
      6          6    90000002        4.540894    0.047556    2.033660
      7          6    90000002        4.028487   -1.943427    0.525594
      8          6    90000002        2.669401   -2.365893    1.112147
      9          6    90000002        1.599913   -1.271447    1.299289
     10          6    20001004        1.255538   -0.525278    0.031648
     11          6    20001004        0.225975   -0.734609   -0.772677
     12          6    90000002       -0.859934   -1.772923   -0.622819
     13          6    90000002       -2.193867   -1.222005   -0.087397
     14          6    90000002       -2.808273   -0.159422   -1.008448
     15          6    90000002       -4.235771    0.350381   -0.681348
     16          6    90000002       -4.586212    1.440767   -1.706873
     17          7    20001014       -5.167648   -0.760786   -0.817153
     18          6    20001002       -6.477199   -0.642137   -0.451018
     19          6    20001001       -7.214913   -1.951415   -0.288611
     20          8    20001024       -7.009447    0.417674   -0.270310
     21          6    20001002       -4.262596    0.827842    0.788358
     22          8    20001024       -4.425426    0.038032    1.679209
     23          7    20001014       -3.995692    2.130551    1.024352
     24          6    20001001       -4.054359    2.654622    2.373466
     25          7    20001014        5.761199   -0.400802   -0.063724
     26          6    20001002        6.474792    0.747060   -0.245018
     27          6    20001001        7.933361    0.547816   -0.601385
     28          8    20001024        5.984714    1.835881   -0.142882
     29          1    20001035        2.990621    2.301911   -2.201542
     30          1    20001035        1.663013    1.159620   -2.066257
     31          1    20001035        2.820953    0.998422   -3.381052
     32          1    20001029        4.378336    0.073006   -1.920954
     33          1    20001034        3.575368    0.037752    2.515944
     34          1    20001034        5.221358   -0.590724    2.589362
     35          1    20001034        4.909974    1.062462    2.059574
     36          1    20001034        4.796053   -2.483473    1.075514
     37          1    20001034        4.099929   -2.278388   -0.504443
     38          1    20001034        2.259829   -3.109100    0.434273
     39          1    20001034        2.815870   -2.871859    2.060787
     40          1    20001034        1.921922   -0.562415    2.050919
     41          1    20001034        0.715857   -1.753344    1.701852
     42          1    20001033        1.934845    0.269219   -0.231847
     43          1    20001033        0.137458   -0.095003   -1.636871
     44          1    20001034       -0.532043   -2.567332    0.036626
     45          1    20001034       -1.031845   -2.236364   -1.593522
     46          1    20001034       -2.871272   -2.061911    0.039305
     47          1    20001034       -2.039857   -0.811843    0.901986
     48          1    20001034       -2.841429   -0.540095   -2.027037
     49          1    20001034       -2.156222    0.706029   -1.021711
     50          1    20001034       -4.641701    0.987605   -2.689801
     51          1    20001034       -3.817959    2.206092   -1.744891
     52          1    20001034       -5.540499    1.898030   -1.492431
     53          1    20001029       -4.776135   -1.663374   -0.673059
     54          1    20001034       -8.275970   -1.771795   -0.372008
     55          1    20001034       -7.005202   -2.346171    0.700992
     56          1    20001034       -6.907226   -2.687275   -1.023608
     57          1    20001029       -4.106480    2.778111    0.280240
     58          1    20001035       -3.693222    3.674626    2.363890
     59          1    20001035       -3.424330    2.063831    3.022046
     60          1    20001035       -5.064979    2.637458    2.768571
     61          1    20001029        6.284543   -1.247500   -0.036151
     62          1    20001034        8.297732    1.438567   -1.092068
     63          1    20001034        8.085169   -0.311859   -1.244397
     64          1    20001034        8.504838    0.396159    0.308678
 ---------------------------------------------------------------------
 Rotational constants (GHZ):      0.4234168      0.0576243      0.0566195
 Standard basis: 6-31G(d) (6D, 7F)
 There are   492 symmetry adapted basis functions of A   symmetry.
 Integral buffers will be    131072 words long.
 Raffenetti 1 integral format.
 Two-electron integral symmetry is turned on.
   492 basis functions,   928 primitive gaussians,   492 cartesian basis functions
   108 alpha electrons      108 beta electrons
       nuclear repulsion energy      2791.1885701948 Hartrees.
 NAtoms=   64 NActive=   64 NUniq=   64 SFac= 7.50D-01 NAtFMM=   80 NAOKFM=F Big=T
 One-electron integrals computed using PRISM.
 NBasis=   492 RedAO= T  NBF=   492
 NBsUse=   492 1.00D-06 NBFU=   492
 Harris functional with IExCor=  205 diagonalized for initial guess.
 ExpMin= 1.61D-01 ExpMax= 5.48D+03 ExpMxC= 8.25D+02 IAcc=1 IRadAn=         1 AccDes= 0.00D+00
 HarFok:  IExCor=  205 AccDes= 0.00D+00 IRadAn=         1 IDoV= 1
 ScaDFX=  1.000000  1.000000  1.000000  1.000000
 FoFCou: FMM=F IPFlag=           0 FMFlag=      100000 FMFlg1=           1
         NFxFlg=           0 DoJE=T BraDBF=F KetDBF=T FulRan=T
         Omega=  0.000000  0.000000  1.000000  0.000000  0.000000 ICntrl=     500 IOpCl=  0
         NMat0=    1 NMatS0=    1 NMatT0=    0 NMatD0=    1 NMtDS0=    0 NMtDT0=    0
         I1Cent=           4 NGrid=           0.
 Petite list used in FoFCou.
 Initial guess orbital symmetries:
       Occupied  (A) (A) (A) (A) (A) (A) (A) (A) (A) (A) (A) (A)
                 (A) (A) (A) (A) (A) (A) (A) (A) (A) (A) (A) (A)
                 (A) (A) (A) (A) (A) (A) (A) (A) (A) (A) (A) (A)
                 (A) (A) (A) (A) (A) (A) (A) (A) (A) (A) (A) (A)
                 (A) (A) (A) (A) (A) (A) (A) (A) (A) (A) (A) (A)
                 (A) (A) (A) (A) (A) (A) (A) (A) (A) (A) (A) (A)
                 (A) (A) (A) (A) (A) (A) (A) (A) (A) (A) (A) (A)
                 (A) (A) (A) (A) (A) (A) (A) (A) (A) (A) (A) (A)
                 (A) (A) (A) (A) (A) (A) (A) (A) (A) (A) (A) (A)
       Virtual   (A) (A) (A) (A) (A) (A) (A) (A) (A) (A) (A) (A)
                 (A) (A) (A) (A) (A) (A) (A) (A) (A) (A) (A) (A)
                 (A) (A) (A) (A) (A) (A) (A) (A) (A) (A) (A) (A)
                 (A) (A) (A) (A) (A) (A) (A) (A) (A) (A) (A) (A)
                 (A) (A) (A) (A) (A) (A) (A) (A) (A) (A) (A) (A)
                 (A) (A) (A) (A) (A) (A) (A) (A) (A) (A) (A) (A)
                 (A) (A) (A) (A) (A) (A) (A) (A) (A) (A) (A) (A)
                 (A) (A) (A) (A) (A) (A) (A) (A) (A) (A) (A) (A)
                 (A) (A) (A) (A) (A) (A) (A) (A) (A) (A) (A) (A)
                 (A) (A) (A) (A) (A) (A) (A) (A) (A) (A) (A) (A)
                 (A) (A) (A) (A) (A) (A) (A) (A) (A) (A) (A) (A)
                 (A) (A) (A) (A) (A) (A) (A) (A) (A) (A) (A) (A)
                 (A) (A) (A) (A) (A) (A) (A) (A) (A) (A) (A) (A)
                 (A) (A) (A) (A) (A) (A) (A) (A) (A) (A) (A) (A)
                 (A) (A) (A) (A) (A) (A) (A) (A) (A) (A) (A) (A)
                 (A) (A) (A) (A) (A) (A) (A) (A) (A) (A) (A) (A)
                 (A) (A) (A) (A) (A) (A) (A) (A) (A) (A) (A) (A)
                 (A) (A) (A) (A) (A) (A) (A) (A) (A) (A) (A) (A)
                 (A) (A) (A) (A) (A) (A) (A) (A) (A) (A) (A) (A)
                 (A) (A) (A) (A) (A) (A) (A) (A) (A) (A) (A) (A)
                 (A) (A) (A) (A) (A) (A) (A) (A) (A) (A) (A) (A)
                 (A) (A) (A) (A) (A) (A) (A) (A) (A) (A) (A) (A)
                 (A) (A) (A) (A) (A) (A) (A) (A) (A) (A) (A) (A)
                 (A) (A) (A) (A) (A) (A) (A) (A) (A) (A) (A) (A)
                 (A) (A) (A) (A) (A) (A) (A) (A) (A) (A) (A) (A)
                 (A) (A) (A) (A) (A) (A) (A) (A) (A) (A) (A) (A)
                 (A) (A) (A) (A) (A) (A) (A) (A) (A) (A) (A) (A)
                 (A) (A) (A) (A) (A) (A) (A) (A) (A) (A) (A) (A)
                 (A) (A) (A) (A) (A) (A) (A) (A) (A) (A) (A) (A)
                 (A) (A) (A) (A) (A) (A) (A) (A) (A) (A) (A) (A)
                 (A) (A) (A) (A) (A) (A) (A) (A) (A) (A) (A) (A)
                 (A) (A) (A) (A) (A) (A) (A) (A) (A) (A) (A) (A)
 The electronic state of the initial guess is 1-A.
 Requested convergence on RMS density matrix=1.00D-08 within 128 cycles.
 Requested convergence on MAX density matrix=1.00D-06.
 Requested convergence on             energy=1.00D-06.
 No special actions if energy rises.
 Integral accuracy reduced to 1.0D-05 until final iterations.
 Initial convergence to 1.0D-05 achieved.  Increase integral accuracy.
 SCF Done:  E(RHF) =  -1295.41539642     A.U. after   15 cycles
             Convg  =    0.4569D-08             -V/T =  2.0004

 **********************************************************************

            Population analysis using the SCF density.

 **********************************************************************

 Orbital symmetries:
       Occupied  (A) (A) (A) (A) (A) (A) (A) (A) (A) (A) (A) (A)
                 (A) (A) (A) (A) (A) (A) (A) (A) (A) (A) (A) (A)
                 (A) (A) (A) (A) (A) (A) (A) (A) (A) (A) (A) (A)
                 (A) (A) (A) (A) (A) (A) (A) (A) (A) (A) (A) (A)
                 (A) (A) (A) (A) (A) (A) (A) (A) (A) (A) (A) (A)
                 (A) (A) (A) (A) (A) (A) (A) (A) (A) (A) (A) (A)
                 (A) (A) (A) (A) (A) (A) (A) (A) (A) (A) (A) (A)
                 (A) (A) (A) (A) (A) (A) (A) (A) (A) (A) (A) (A)
                 (A) (A) (A) (A) (A) (A) (A) (A) (A) (A) (A) (A)
       Virtual   (A) (A) (A) (A) (A) (A) (A) (A) (A) (A) (A) (A)
                 (A) (A) (A) (A) (A) (A) (A) (A) (A) (A) (A) (A)
                 (A) (A) (A) (A) (A) (A) (A) (A) (A) (A) (A) (A)
                 (A) (A) (A) (A) (A) (A) (A) (A) (A) (A) (A) (A)
                 (A) (A) (A) (A) (A) (A) (A) (A) (A) (A) (A) (A)
                 (A) (A) (A) (A) (A) (A) (A) (A) (A) (A) (A) (A)
                 (A) (A) (A) (A) (A) (A) (A) (A) (A) (A) (A) (A)
                 (A) (A) (A) (A) (A) (A) (A) (A) (A) (A) (A) (A)
                 (A) (A) (A) (A) (A) (A) (A) (A) (A) (A) (A) (A)
                 (A) (A) (A) (A) (A) (A) (A) (A) (A) (A) (A) (A)
                 (A) (A) (A) (A) (A) (A) (A) (A) (A) (A) (A) (A)
                 (A) (A) (A) (A) (A) (A) (A) (A) (A) (A) (A) (A)
                 (A) (A) (A) (A) (A) (A) (A) (A) (A) (A) (A) (A)
                 (A) (A) (A) (A) (A) (A) (A) (A) (A) (A) (A) (A)
                 (A) (A) (A) (A) (A) (A) (A) (A) (A) (A) (A) (A)
                 (A) (A) (A) (A) (A) (A) (A) (A) (A) (A) (A) (A)
                 (A) (A) (A) (A) (A) (A) (A) (A) (A) (A) (A) (A)
                 (A) (A) (A) (A) (A) (A) (A) (A) (A) (A) (A) (A)
                 (A) (A) (A) (A) (A) (A) (A) (A) (A) (A) (A) (A)
                 (A) (A) (A) (A) (A) (A) (A) (A) (A) (A) (A) (A)
                 (A) (A) (A) (A) (A) (A) (A) (A) (A) (A) (A) (A)
                 (A) (A) (A) (A) (A) (A) (A) (A) (A) (A) (A) (A)
                 (A) (A) (A) (A) (A) (A) (A) (A) (A) (A) (A) (A)
                 (A) (A) (A) (A) (A) (A) (A) (A) (A) (A) (A) (A)
                 (A) (A) (A) (A) (A) (A) (A) (A) (A) (A) (A) (A)
                 (A) (A) (A) (A) (A) (A) (A) (A) (A) (A) (A) (A)
                 (A) (A) (A) (A) (A) (A) (A) (A) (A) (A) (A) (A)
                 (A) (A) (A) (A) (A) (A) (A) (A) (A) (A) (A) (A)
                 (A) (A) (A) (A) (A) (A) (A) (A) (A) (A) (A) (A)
                 (A) (A) (A) (A) (A) (A) (A) (A) (A) (A) (A) (A)
                 (A) (A) (A) (A) (A) (A) (A) (A) (A) (A) (A) (A)
                 (A) (A) (A) (A) (A) (A) (A) (A) (A) (A) (A) (A)
 The electronic state is 1-A.
 Alpha  occ. eigenvalues --  -20.54404 -20.53900 -20.51273 -20.50634 -15.60478
 Alpha  occ. eigenvalues --  -15.59880 -15.56995 -15.56591 -11.36703 -11.36333
 Alpha  occ. eigenvalues --  -11.33478 -11.32718 -11.30187 -11.27460 -11.26108
 Alpha  occ. eigenvalues --  -11.24924 -11.24363 -11.24228 -11.22302 -11.21896
 Alpha  occ. eigenvalues --  -11.21876 -11.21674 -11.20881 -11.20400 -11.20080
 Alpha  occ. eigenvalues --  -11.19766 -11.17801 -11.13573  -1.46944  -1.41241
 Alpha  occ. eigenvalues --   -1.38509  -1.37215  -1.26828  -1.24287  -1.22599
 Alpha  occ. eigenvalues --   -1.21711  -1.10185  -1.08097  -1.05917  -1.03327
 Alpha  occ. eigenvalues --   -1.00858  -0.98680  -0.97912  -0.97099  -0.94503
 Alpha  occ. eigenvalues --   -0.93840  -0.91224  -0.87151  -0.85388  -0.83292
 Alpha  occ. eigenvalues --   -0.81230  -0.79912  -0.78599  -0.77916  -0.75959
 Alpha  occ. eigenvalues --   -0.75327  -0.72459  -0.70517  -0.69743  -0.67802
 Alpha  occ. eigenvalues --   -0.67405  -0.66617  -0.64574  -0.63770  -0.63546
 Alpha  occ. eigenvalues --   -0.63256  -0.62895  -0.61253  -0.60951  -0.60756
 Alpha  occ. eigenvalues --   -0.60480  -0.60071  -0.59986  -0.58654  -0.58305
 Alpha  occ. eigenvalues --   -0.57812  -0.57493  -0.56481  -0.56146  -0.55636
 Alpha  occ. eigenvalues --   -0.55179  -0.54936  -0.54229  -0.53993  -0.53789
 Alpha  occ. eigenvalues --   -0.53456  -0.52883  -0.52303  -0.51895  -0.51271
 Alpha  occ. eigenvalues --   -0.50395  -0.48994  -0.48720  -0.47729  -0.47301
 Alpha  occ. eigenvalues --   -0.46877  -0.46108  -0.45233  -0.43891  -0.43385
 Alpha  occ. eigenvalues --   -0.41326  -0.40660  -0.40551  -0.40256  -0.37937
 Alpha  occ. eigenvalues --   -0.37350  -0.32398  -0.29628
 Alpha virt. eigenvalues --    0.15009   0.18181   0.19227   0.20528   0.21755
 Alpha virt. eigenvalues --    0.22559   0.22983   0.23523   0.24135   0.24746
 Alpha virt. eigenvalues --    0.25336   0.26709   0.27162   0.27277   0.27844
 Alpha virt. eigenvalues --    0.28656   0.28834   0.28948   0.29031   0.29797
 Alpha virt. eigenvalues --    0.30435   0.30923   0.31313   0.31828   0.32071
 Alpha virt. eigenvalues --    0.32355   0.32948   0.33307   0.34313   0.34371
 Alpha virt. eigenvalues --    0.34610   0.35057   0.35260   0.35608   0.36341
 Alpha virt. eigenvalues --    0.36692   0.36767   0.37760   0.38067   0.38568
 Alpha virt. eigenvalues --    0.39129   0.39637   0.40891   0.41187   0.41490
 Alpha virt. eigenvalues --    0.41974   0.42979   0.43269   0.44933   0.45168
 Alpha virt. eigenvalues --    0.45654   0.45961   0.47560   0.49066   0.50014
 Alpha virt. eigenvalues --    0.50915   0.51736   0.53191   0.53721   0.54687
 Alpha virt. eigenvalues --    0.55648   0.56560   0.58615   0.58953   0.61009
 Alpha virt. eigenvalues --    0.63749   0.64769   0.67878   0.68976   0.70441
 Alpha virt. eigenvalues --    0.71463   0.71675   0.72465   0.73328   0.73723
 Alpha virt. eigenvalues --    0.74042   0.74961   0.76357   0.76669   0.77214
 Alpha virt. eigenvalues --    0.77530   0.77892   0.78520   0.79299   0.79912
 Alpha virt. eigenvalues --    0.80900   0.81244   0.82031   0.82484   0.84469
 Alpha virt. eigenvalues --    0.84925   0.85551   0.85749   0.86441   0.87368
 Alpha virt. eigenvalues --    0.88007   0.88885   0.90460   0.91044   0.92026
 Alpha virt. eigenvalues --    0.92507   0.93314   0.93444   0.93780   0.95183
 Alpha virt. eigenvalues --    0.96172   0.96408   0.96512   0.97395   0.98173
 Alpha virt. eigenvalues --    0.98957   0.99831   1.00638   1.01149   1.01524
 Alpha virt. eigenvalues --    1.02182   1.02848   1.03486   1.03937   1.04742
 Alpha virt. eigenvalues --    1.05384   1.06736   1.07051   1.08340   1.08576
 Alpha virt. eigenvalues --    1.09121   1.09490   1.10286   1.11347   1.11953
 Alpha virt. eigenvalues --    1.12456   1.13420   1.14209   1.14318   1.15078
 Alpha virt. eigenvalues --    1.15320   1.15570   1.16065   1.16250   1.16741
 Alpha virt. eigenvalues --    1.16874   1.17512   1.18028   1.18211   1.18485
 Alpha virt. eigenvalues --    1.19096   1.19357   1.19550   1.19931   1.20618
 Alpha virt. eigenvalues --    1.20849   1.21206   1.21627   1.21799   1.22308
 Alpha virt. eigenvalues --    1.22768   1.22902   1.23226   1.23850   1.24286
 Alpha virt. eigenvalues --    1.24618   1.25350   1.26921   1.27096   1.27589
 Alpha virt. eigenvalues --    1.28274   1.29217   1.29773   1.30585   1.30812
 Alpha virt. eigenvalues --    1.30889   1.31870   1.32176   1.32484   1.33699
 Alpha virt. eigenvalues --    1.35034   1.36902   1.37047   1.39362   1.39626
 Alpha virt. eigenvalues --    1.40599   1.40757   1.42947   1.44687   1.44927
 Alpha virt. eigenvalues --    1.46784   1.48141   1.48387   1.49487   1.50519
 Alpha virt. eigenvalues --    1.52584   1.53309   1.55339   1.56941   1.57946
 Alpha virt. eigenvalues --    1.59993   1.60861   1.62287   1.62556   1.63024
 Alpha virt. eigenvalues --    1.65648   1.66390   1.67973   1.70577   1.71401
 Alpha virt. eigenvalues --    1.72330   1.73181   1.74324   1.74639   1.76211
 Alpha virt. eigenvalues --    1.77257   1.77288   1.79450   1.81606   1.82065
 Alpha virt. eigenvalues --    1.85029   1.86081   1.87220   1.90269   1.91050
 Alpha virt. eigenvalues --    1.91834   1.92237   1.93195   1.94173   1.97067
 Alpha virt. eigenvalues --    1.98193   1.99117   2.00062   2.01884   2.05256
 Alpha virt. eigenvalues --    2.06262   2.06642   2.07600   2.08178   2.10108
 Alpha virt. eigenvalues --    2.10340   2.11372   2.12095   2.12910   2.13808
 Alpha virt. eigenvalues --    2.14097   2.15231   2.15439   2.17145   2.17786
 Alpha virt. eigenvalues --    2.18052   2.19307   2.19723   2.20426   2.20985
 Alpha virt. eigenvalues --    2.21582   2.22812   2.23613   2.23918   2.26280
 Alpha virt. eigenvalues --    2.26831   2.27483   2.27727   2.28201   2.29457
 Alpha virt. eigenvalues --    2.30361   2.31059   2.31943   2.32225   2.34030
 Alpha virt. eigenvalues --    2.34129   2.35089   2.35755   2.36949   2.38146
 Alpha virt. eigenvalues --    2.38427   2.39365   2.40526   2.40726   2.41366
 Alpha virt. eigenvalues --    2.41860   2.43281   2.44434   2.46619   2.48243
 Alpha virt. eigenvalues --    2.48945   2.50089   2.50629   2.51412   2.53223
 Alpha virt. eigenvalues --    2.53599   2.54687   2.55462   2.55942   2.56977
 Alpha virt. eigenvalues --    2.58448   2.58651   2.61138   2.61437   2.62596
 Alpha virt. eigenvalues --    2.63561   2.63988   2.64087   2.65749   2.66914
 Alpha virt. eigenvalues --    2.67945   2.69603   2.70500   2.71324   2.72469
 Alpha virt. eigenvalues --    2.73338   2.73483   2.75498   2.76490   2.77375
 Alpha virt. eigenvalues --    2.78301   2.78905   2.80573   2.80950   2.83164
 Alpha virt. eigenvalues --    2.84509   2.85012   2.86655   2.87394   2.87610
 Alpha virt. eigenvalues --    2.89793   2.90720   2.93620   2.95823   2.96842
 Alpha virt. eigenvalues --    2.97893   2.98818   2.99406   3.00606   3.03490
 Alpha virt. eigenvalues --    3.04191   3.06216   3.06548   3.08102   3.12213
 Alpha virt. eigenvalues --    3.12610   3.14118   3.14409   3.15284   3.17078
 Alpha virt. eigenvalues --    3.19543   3.20483   3.28898   3.30833   3.31621
 Alpha virt. eigenvalues --    3.35278   3.36371   3.38202   3.41426   3.42335
 Alpha virt. eigenvalues --    3.43618   3.50562   3.52737   3.56646   3.58480
 Alpha virt. eigenvalues --    3.58892   4.39357   4.41645   4.43868   4.47042
 Alpha virt. eigenvalues --    4.50134   4.52730   4.56736   4.59767   4.63464
 Alpha virt. eigenvalues --    4.64305   4.67732   4.69792   4.71154   4.72649
 Alpha virt. eigenvalues --    4.76317   4.79511   4.80764   4.85279   4.86418
 Alpha virt. eigenvalues --    4.89927   4.91163   4.94974   4.97356   5.03400
 Alpha virt. eigenvalues --    5.06459   5.18419   5.24767   5.27807
          Condensed to atoms (all electrons):
 Mulliken atomic charges:
              1
     1  C   -0.297076
     2  N   -0.751558
     3  C    0.766238
     4  O   -0.603806
     5  C    0.103832
     6  C   -0.472284
     7  C   -0.332960
     8  C   -0.305832
     9  C   -0.378897
    10  C   -0.165320
    11  C   -0.249161
    12  C   -0.342297
    13  C   -0.304773
    14  C   -0.325895
    15  C    0.090428
    16  C   -0.509296
    17  N   -0.787858
    18  C    0.767432
    19  C   -0.595182
    20  O   -0.615851
    21  C    0.822144
    22  O   -0.641291
    23  N   -0.804507
    24  C   -0.274039
    25  N   -0.843625
    26  C    0.743541
    27  C   -0.589111
    28  O   -0.591232
    29  H    0.193548
    30  H    0.217507
    31  H    0.176100
    32  H    0.404733
    33  H    0.197629
    34  H    0.152326
    35  H    0.213502
    36  H    0.164670
    37  H    0.183385
    38  H    0.173840
    39  H    0.162973
    40  H    0.186635
    41  H    0.171028
    42  H    0.301049
    43  H    0.133228
    44  H    0.160606
    45  H    0.142688
    46  H    0.138684
    47  H    0.193021
    48  H    0.169047
    49  H    0.186884
    50  H    0.181496
    51  H    0.148426
    52  H    0.223265
    53  H    0.390696
    54  H    0.208712
    55  H    0.208471
    56  H    0.175754
    57  H    0.394523
    58  H    0.163953
    59  H    0.198974
    60  H    0.181829
    61  H    0.386587
    62  H    0.220223
    63  H    0.178755
    64  H    0.203488
 Sum of Mulliken atomic charges =   0.00000
 Mulliken charges with hydrogens summed into heavy atoms:
              1
     1  C    0.290079
     2  N   -0.346824
     3  C    0.766238
     4  O   -0.603806
     5  C    0.103832
     6  C    0.091174
     7  C    0.015095
     8  C    0.030980
     9  C   -0.021234
    10  C    0.135729
    11  C   -0.115932
    12  C   -0.039004
    13  C    0.026932
    14  C    0.030036
    15  C    0.090428
    16  C    0.043892
    17  N   -0.397162
    18  C    0.767432
    19  C   -0.002245
    20  O   -0.615851
    21  C    0.822144
    22  O   -0.641291
    23  N   -0.409984
    24  C    0.270718
    25  N   -0.457039
    26  C    0.743541
    27  C    0.013355
    28  O   -0.591232
 Sum of Mulliken charges with hydrogens summed into heavy atoms =   0.00000
 Electronic spatial extent (au):  <R**2>=          18980.7884
 Charge=              0.0000 electrons
 Dipole moment (field-independent basis, Debye):
    X=              8.5155    Y=             -3.3252    Z=             -3.4498  Tot=              9.7710
 Quadrupole moment (field-independent basis, Debye-Ang):
   XX=           -158.1204   YY=           -165.2347   ZZ=           -167.3738
   XY=            -13.9652   XZ=              1.3655   YZ=             -0.7185
 Traceless Quadrupole moment (field-independent basis, Debye-Ang):
   XX=              5.4559   YY=             -1.6584   ZZ=             -3.7975
   XY=            -13.9652   XZ=              1.3655   YZ=             -0.7185
 Octapole moment (field-independent basis, Debye-Ang**2):
  XXX=            572.7602  YYY=             19.6113  ZZZ=            -10.8785  XYY=            -87.1453
  XXY=           -181.9309  XXZ=            -63.9186  XZZ=             38.5465  YZZ=             22.3587
  YYZ=              7.5193  XYZ=            -29.0522
 Hexadecapole moment (field-independent basis, Debye-Ang**3):
 XXXX=         -20465.4975 YYYY=          -1985.7306 ZZZZ=          -1595.5630 XXXY=            112.2142
 XXXZ=            -87.0193 YYYX=           -140.4350 YYYZ=             25.6965 ZZZX=            -86.9071
 ZZZY=             16.0732 XXYY=          -3762.2564 XXZZ=          -3756.1791 YYZZ=           -585.6220
 XXYZ=             46.4839 YYXZ=            -49.9024 ZZXY=            -11.0706
 N-N= 2.791188570195D+03 E-N=-8.615629223635D+03  KE= 1.294940054862D+03
 1\1\GINC-MOSURA\SP\RHF\6-31G(d)\C20H36N4O4\MARIE\05-Dec-2019\0\\#SP HF
 /6-31G* Geom=(ModRedundant)\\paramfit run\\0,1\C,0,0.,0.,0.\N,0,1.4481
 87,0.,0.\C,0,2.1232,0.47592,1.072365\O,0,1.590179,0.696732,2.124447\C,
 0,3.650505,0.594143,0.921539\C,0,4.198902,1.549248,1.986845\C,0,4.3077
 51,-0.809116,1.023981\C,0,4.133566,-1.622781,2.319066\C,0,2.963387,-1.
 2452,3.248986\C,0,1.608673,-1.290879,2.581947\C,0,0.717466,-2.267562,2
 .632903\C,0,0.834705,-3.579899,3.370318\C,0,0.045111,-3.637675,4.69045
 7\C,0,-1.464188,-3.449537,4.486659\C,0,-2.39595,-3.661749,5.7079\C,0,-
 3.832685,-3.354631,5.255218\N,0,-2.305678,-5.054749,6.123752\C,0,-2.90
 8334,-5.498789,7.265107\C,0,-2.42218,-6.840993,7.762046\O,0,-3.760398,
 -4.876604,7.836084\C,0,-1.892645,-2.77597,6.870142\O,0,-1.002952,-3.15
 7957,7.581803\N,0,-2.417461,-1.536436,6.980156\C,0,-2.027465,-0.673599
 ,8.076339\N,0,3.997412,1.070275,-0.425452\C,0,3.587019,2.267163,-0.934
 086\C,0,4.328148,2.727659,-2.172145\O,0,2.697134,2.905425,-0.447397\H,
 0,-0.403259,1.006147,0.\H,0,-0.36496,-0.516002,0.875939\H,0,-0.345658,
 -0.522086,-0.883346\H,0,1.904244,0.070913,-0.879357\H,0,3.932135,1.221
 76,2.980082\H,0,5.28092,1.595925,1.9075\H,0,3.792711,2.540594,1.848395
 \H,0,5.374584,-0.64325,0.891407\H,0,3.984642,-1.403324,0.174983\H,0,3.
 988591,-2.655594,2.015918\H,0,5.052807,-1.604323,2.895285\H,0,3.121336
 ,-0.257379,3.662054\H,0,2.989619,-1.92893,4.090212\H,0,1.351879,-0.417
 292,2.004872\H,0,-0.205197,-2.121712,2.09329\H,0,1.873485,-3.798029,3.
 5867\H,0,0.487758,-4.377477,2.714505\H,0,0.255327,-4.594768,5.159666\H
 ,0,0.425294,-2.884214,5.367648\H,0,-1.811193,-4.128749,3.710906\H,0,-1
 .641586,-2.444796,4.121453\H,0,-4.127672,-4.089169,4.514935\H,0,-3.896
 991,-2.377801,4.787191\H,0,-4.529835,-3.406917,6.07801\H,0,-1.449666,-
 5.509488,5.902014\H,0,-3.172325,-7.271494,8.407811\H,0,-1.513611,-6.68
 8635,8.336864\H,0,-2.202395,-7.522695,6.947578\H,0,-3.291044,-1.352745
 ,6.546081\H,0,-2.460881,0.304982,7.916807\H,0,-0.951578,-0.582259,8.10
 3731\H,0,-2.363127,-1.061043,9.032881\H,0,4.82812,0.684785,-0.816437\H
 ,0,3.710173,3.434604,-2.706288\H,0,4.588171,1.902533,-2.825678\H,0,5.2
 44771,3.226201,-1.873716\\Version=EM64L-G09RevA.02\State=1-A\HF=-1295.
 4153964\RMSD=4.569e-09\Dipole=1.9296029,0.1996463,-3.3188425\Quadrupol
 e=8.0940522,-8.2731127,0.1790605,0.300537,-6.9807644,2.5048195\PG=C01 
 [X(C20H36N4O4)]\\@


 A leading authority is anyone who has guessed right more than once.
 -- Frank A. Clark
 Job cpu time:  0 days  0 hours  6 minutes 33.3 seconds.
 File lengths (MBytes):  RWF=    132 Int=      0 D2E=      0 Chk=     10 Scr=      1
 Normal termination of Gaussian 09 at Thu Dec  5 17:55:35 2019.
