 Entering Gaussian System, Link 0=g09
 Input=CHI2_30.gau
 Output=CHI2_30.log
 Initial command:
 /home/marie/Utilities//g09/l1.exe /tmp/g09/Gau-9339.inp -scrdir=/tmp/g09/
 Entering Link 1 = /home/marie/Utilities//g09/l1.exe PID=      9341.
  
 Copyright (c) 1988,1990,1992,1993,1995,1998,2003,2009, Gaussian, Inc.
                  All Rights Reserved.
  
 This is part of the Gaussian(R) 09 program.  It is based on
 the Gaussian(R) 03 system (copyright 2003, Gaussian, Inc.),
 the Gaussian(R) 98 system (copyright 1998, Gaussian, Inc.),
 the Gaussian(R) 94 system (copyright 1995, Gaussian, Inc.),
 the Gaussian 92(TM) system (copyright 1992, Gaussian, Inc.),
 the Gaussian 90(TM) system (copyright 1990, Gaussian, Inc.),
 the Gaussian 88(TM) system (copyright 1988, Gaussian, Inc.),
 the Gaussian 86(TM) system (copyright 1986, Carnegie Mellon
 University), and the Gaussian 82(TM) system (copyright 1983,
 Carnegie Mellon University). Gaussian is a federally registered
 trademark of Gaussian, Inc.
  
 This software contains proprietary and confidential information,
 including trade secrets, belonging to Gaussian, Inc.
  
 This software is provided under written license and may be
 used, copied, transmitted, or stored only in accord with that
 written license.
  
 The following legend is applicable only to US Government
 contracts under FAR:
  
                    RESTRICTED RIGHTS LEGEND
  
 Use, reproduction and disclosure by the US Government is
 subject to restrictions as set forth in subparagraphs (a)
 and (c) of the Commercial Computer Software - Restricted
 Rights clause in FAR 52.227-19.
  
 Gaussian, Inc.
 340 Quinnipiac St., Bldg. 40, Wallingford CT 06492
  
  
 ---------------------------------------------------------------
 Warning -- This program may not be used in any manner that
 competes with the business of Gaussian, Inc. or will provide
 assistance to any competitor of Gaussian, Inc.  The licensee
 of this program is prohibited from giving any competitor of
 Gaussian, Inc. access to this program.  By using this program,
 the user acknowledges that Gaussian, Inc. is engaged in the
 business of creating and licensing software in the field of
 computational chemistry and represents and warrants to the
 licensee that it is not a competitor of Gaussian, Inc. and that
 it will not use this program in any manner prohibited above.
 ---------------------------------------------------------------
  

 Cite this work as:
 Gaussian 09, Revision A.02,
 M. J. Frisch, G. W. Trucks, H. B. Schlegel, G. E. Scuseria, 
 M. A. Robb, J. R. Cheeseman, G. Scalmani, V. Barone, B. Mennucci, 
 G. A. Petersson, H. Nakatsuji, M. Caricato, X. Li, H. P. Hratchian, 
 A. F. Izmaylov, J. Bloino, G. Zheng, J. L. Sonnenberg, M. Hada, 
 M. Ehara, K. Toyota, R. Fukuda, J. Hasegawa, M. Ishida, T. Nakajima, 
 Y. Honda, O. Kitao, H. Nakai, T. Vreven, J. A. Montgomery, Jr., 
 J. E. Peralta, F. Ogliaro, M. Bearpark, J. J. Heyd, E. Brothers, 
 K. N. Kudin, V. N. Staroverov, R. Kobayashi, J. Normand, 
 K. Raghavachari, A. Rendell, J. C. Burant, S. S. Iyengar, J. Tomasi, 
 M. Cossi, N. Rega, J. M. Millam, M. Klene, J. E. Knox, J. B. Cross, 
 V. Bakken, C. Adamo, J. Jaramillo, R. Gomperts, R. E. Stratmann, 
 O. Yazyev, A. J. Austin, R. Cammi, C. Pomelli, J. W. Ochterski, 
 R. L. Martin, K. Morokuma, V. G. Zakrzewski, G. A. Voth, 
 P. Salvador, J. J. Dannenberg, S. Dapprich, A. D. Daniels, 
 O. Farkas, J. B. Foresman, J. V. Ortiz, J. Cioslowski, 
 and D. J. Fox, Gaussian, Inc., Wallingford CT, 2009.
 
 ******************************************
 Gaussian 09:  EM64L-G09RevA.02 11-Jun-2009
                 5-Dec-2019 
 ******************************************
 %chk=CHI2_30
 %NoSave
 ---------------------------------
 #SP HF/6-31G* Geom=(ModRedundant)
 ---------------------------------
 1/18=120,38=1/1;
 2/12=2,17=6,18=5,40=1/2;
 3/5=1,6=6,7=1,11=9,16=1,25=1,30=1/1,2,3;
 4//1;
 5/5=2,38=5/2;
 6/7=2,8=2,9=2,10=2,28=1/1;
 99/5=1,9=1/99;
 ------------
 paramfit run
 ------------
 Symbolic Z-matrix:
 Charge =  0 Multiplicity = 1
 C-CT--0.3208          0.        0.        0. 
 N-N--0.5622           1.44819   0.        0. 
 C-C-0.8053            2.1232    0.47592   1.07237 
 O-O--0.6151           1.59018   0.69673   2.12445 
 C-CX-0.0839           3.65051   0.59414   0.92154 
 C-CU--0.3230          4.1989    1.54925   1.98685 
 C-CU--0.0657          4.30775  -0.80912   1.02398 
 C-CU--0.0109          4.13357  -1.62278   2.31907 
 C-CU-0.0816           2.83942  -1.40936   3.12918 
 C-CM--0.2354          1.57385  -1.66229   2.34392 
 C-CM--0.2653          0.83305  -2.75863   2.33993 
 C-CU-0.1214           1.07031  -4.02986   3.11931 
 C-CU--0.0354          0.17787  -4.18605   4.36379 
 C-CU--0.0984         -1.31711  -4.22447   4.01957 
 C-CU-0.1300          -2.31794  -4.55558   5.15682 
 C-CU--0.3561         -3.73552  -4.46886   4.56825 
 N-N--0.7186          -2.06556  -5.9147    5.61577 
 C-C-0.8537           -2.70112  -6.42775   6.70934 
 C-CT--0.3868         -2.07372  -7.67739   7.28343 
 O-O--0.6323          -3.68397  -5.93027   7.18437 
 C-C-0.7903           -2.05915  -3.59053   6.33598 
 O-O--0.6136          -1.19369  -3.82837   7.13495 
 N-N--0.5650          -2.76631  -2.44029   6.36537 
 C-CT--0.3231         -2.60963  -1.51544   7.46914 
 N-N--0.7191           3.99741   1.07028  -0.42545 
 C-C-0.8539            3.58702   2.26716  -0.93409 
 C-CT--0.3903          4.32815   2.72766  -2.17214 
 O-O--0.6290           2.69713   2.90543  -0.4474 
 H-H1-0.1459          -0.40326   1.00615   0. 
 H-H1-0.1459          -0.36496  -0.516     0.87594 
 H-H1-0.1459          -0.34566  -0.52209  -0.88335 
 H-H-0.3572            1.90424   0.07091  -0.87936 
 H-HC-0.0997           3.93214   1.22176   2.98008 
 H-HC-0.0997           5.28092   1.59593   1.9075 
 H-HC-0.0997           3.79271   2.54059   1.8484 
 H-HC-0.0347           5.37458  -0.64325   0.89141 
 H-HC-0.0347           3.98464  -1.40332   0.17498 
 H-HC-0.0243           4.16898  -2.66951   2.03144 
 H-HC-0.0243           4.98262  -1.46197   2.97528 
 H-HC-0.0171           2.81307  -0.40381   3.5286 
 H-HC-0.0171           2.8861   -2.0709    3.98709 
 H-HA-0.1313           1.24787  -0.84345   1.72314 
 H-HA-0.1359          -0.04664  -2.75696   1.71551 
 H-HC-0.0092           2.10501  -4.09011   3.43434 
 H-HC-0.0092           0.90551  -4.87816   2.45613 
 H-HC-0.0318           0.48014  -5.09571   4.87517 
 H-HC-0.0318           0.37982  -3.37622   5.05242 
 H-HC-0.0435          -1.48797  -4.95726   3.23385 
 H-HC-0.0435          -1.60367  -3.26151   3.61343 
 H-HC-0.1066          -3.85042  -5.24827   3.824 
 H-HC-0.1066          -3.89704  -3.51821   4.07069 
 H-HC-0.1066          -4.49133  -4.61245   5.32579 
 H-H-0.3529           -1.13569  -6.24148   5.48435 
 H-HC-0.1047          -2.81032  -8.20513   7.86993 
 H-HC-0.1047          -1.25449  -7.38573   7.93375 
 H-HC-0.1047          -1.68232  -8.32982   6.51043 
 H-H-0.3615           -3.61299  -2.39263   5.84945 
 H-H1-0.1469          -3.16375  -0.61334   7.24532 
 H-H1-0.1469          -1.5657   -1.26659   7.59119 
 H-H1-0.1469          -2.97319  -1.93565   8.40134 
 H-H-0.3570            4.82812   0.68479  -0.81644 
 H-HC-0.1060           3.71017   3.4346   -2.70629 
 H-HC-0.1060           4.58817   1.90253  -2.82568 
 H-HC-0.1060           5.24477   3.2262   -1.87372 
 
 The following ModRedundant input section has been read:
 D    *    7    8    * F                                                       
 Stoichiometry    C20H36N4O4
 Framework group  C1[X(C20H36N4O4)]
 Deg. of freedom   186
 Full point group                 C1      NOp   1
 Largest Abelian subgroup         C1      NOp   1
 Largest concise Abelian subgroup C1      NOp   1
                         Standard orientation:                         
 ---------------------------------------------------------------------
 Center     Atomic      Atomic             Coordinates (Angstroms)
 Number     Number       Type             X           Y           Z
 ---------------------------------------------------------------------
      1          6    20001001        2.709644    1.657393   -2.007016
      2          7    20001014        3.503619    0.623584   -1.376073
      3          6    20001002        3.519450    0.513458   -0.027099
      4          8    20001024        2.734378    1.086559    0.676436
      5          6    90000001        4.515939   -0.499624    0.564560
      6          6    90000002        4.749431   -0.184505    2.045783
      7          6    90000002        3.987154   -1.946452    0.367894
      8          6    90000002        2.644147   -2.344149    1.006491
      9          6    90000002        1.580753   -1.241659    1.180688
     10          6    20001004        1.202725   -0.543581   -0.104638
     11          6    20001004        0.151699   -0.781622   -0.872387
     12          6    90000002       -0.930387   -1.811739   -0.653982
     13          6    90000002       -2.249051   -1.238735   -0.104110
     14          6    90000002       -2.887465   -0.210882   -1.047962
     15          6    90000002       -4.305309    0.313282   -0.702102
     16          6    90000002       -4.682659    1.364524   -1.758486
     17          7    20001014       -5.241174   -0.800729   -0.770435
     18          6    20001002       -6.540292   -0.666148   -0.373904
     19          6    20001001       -7.274132   -1.967121   -0.142056
     20          8    20001024       -7.066836    0.400620   -0.219302
     21          6    20001002       -4.292161    0.846222    0.748596
     22          8    20001024       -4.431352    0.091058    1.672869
     23          7    20001014       -4.018208    2.156515    0.927655
     24          6    20001001       -4.040120    2.731508    2.256981
     25          7    20001014        5.785119   -0.463162   -0.176578
     26          6    20001002        6.568016    0.648383   -0.282453
     27          6    20001001        7.979572    0.396442   -0.770463
     28          8    20001024        6.168653    1.747664   -0.021241
     29          1    20001035        3.082555    2.648907   -1.777264
     30          1    20001035        1.686057    1.588844   -1.668942
     31          1    20001035        2.735163    1.506977   -3.078966
     32          1    20001029        4.316408    0.315708   -1.856565
     33          1    20001034        3.821490   -0.187059    2.597012
     34          1    20001034        5.417209   -0.927155    2.472142
     35          1    20001034        5.194007    0.793728    2.156860
     36          1    20001034        4.748502   -2.596839    0.792824
     37          1    20001034        3.962110   -2.162157   -0.695650
     38          1    20001034        2.215982   -3.111884    0.368623
     39          1    20001034        2.815872   -2.813982    1.969373
     40          1    20001034        1.923359   -0.505132    1.895890
     41          1    20001034        0.707601   -1.706495    1.624948
     42          1    20001033        1.875144    0.239241   -0.416337
     43          1    20001033        0.040263   -0.175134   -1.757552
     44          1    20001034       -0.585285   -2.581076    0.026086
     45          1    20001034       -1.128717   -2.311409   -1.601393
     46          1    20001034       -2.923287   -2.072129    0.072618
     47          1    20001034       -2.068142   -0.791568    0.864468
     48          1    20001034       -2.948336   -0.629887   -2.050091
     49          1    20001034       -2.235496    0.652384   -1.111660
     50          1    20001034       -4.764934    0.874473   -2.721638
     51          1    20001034       -3.915257    2.126609   -1.846241
     52          1    20001034       -5.630538    1.831142   -1.535922
     53          1    20001029       -4.846451   -1.697831   -0.602766
     54          1    20001034       -8.336947   -1.789077   -0.203585
     55          1    20001034       -7.038016   -2.324372    0.855814
     56          1    20001034       -6.986838   -2.730844   -0.856598
     57          1    20001029       -4.148660    2.775545    0.162742
     58          1    20001035       -3.678766    3.749827    2.198937
     59          1    20001035       -3.393162    2.164740    2.910315
     60          1    20001035       -5.039715    2.730989    2.679551
     61          1    20001029        6.244577   -1.339951   -0.284686
     62          1    20001034        8.374524    1.312609   -1.184738
     63          1    20001034        8.022122   -0.389938   -1.515678
     64          1    20001034        8.599664    0.101578    0.069979
 ---------------------------------------------------------------------
 Rotational constants (GHZ):      0.4272277      0.0565914      0.0552289
 Standard basis: 6-31G(d) (6D, 7F)
 There are   492 symmetry adapted basis functions of A   symmetry.
 Integral buffers will be    131072 words long.
 Raffenetti 1 integral format.
 Two-electron integral symmetry is turned on.
   492 basis functions,   928 primitive gaussians,   492 cartesian basis functions
   108 alpha electrons      108 beta electrons
       nuclear repulsion energy      2775.6862580479 Hartrees.
 NAtoms=   64 NActive=   64 NUniq=   64 SFac= 7.50D-01 NAtFMM=   80 NAOKFM=F Big=T
 One-electron integrals computed using PRISM.
 NBasis=   492 RedAO= T  NBF=   492
 NBsUse=   492 1.00D-06 NBFU=   492
 Harris functional with IExCor=  205 diagonalized for initial guess.
 ExpMin= 1.61D-01 ExpMax= 5.48D+03 ExpMxC= 8.25D+02 IAcc=1 IRadAn=         1 AccDes= 0.00D+00
 HarFok:  IExCor=  205 AccDes= 0.00D+00 IRadAn=         1 IDoV= 1
 ScaDFX=  1.000000  1.000000  1.000000  1.000000
 FoFCou: FMM=F IPFlag=           0 FMFlag=      100000 FMFlg1=           1
         NFxFlg=           0 DoJE=T BraDBF=F KetDBF=T FulRan=T
         Omega=  0.000000  0.000000  1.000000  0.000000  0.000000 ICntrl=     500 IOpCl=  0
         NMat0=    1 NMatS0=    1 NMatT0=    0 NMatD0=    1 NMtDS0=    0 NMtDT0=    0
         I1Cent=           4 NGrid=           0.
 Petite list used in FoFCou.
 Initial guess orbital symmetries:
       Occupied  (A) (A) (A) (A) (A) (A) (A) (A) (A) (A) (A) (A)
                 (A) (A) (A) (A) (A) (A) (A) (A) (A) (A) (A) (A)
                 (A) (A) (A) (A) (A) (A) (A) (A) (A) (A) (A) (A)
                 (A) (A) (A) (A) (A) (A) (A) (A) (A) (A) (A) (A)
                 (A) (A) (A) (A) (A) (A) (A) (A) (A) (A) (A) (A)
                 (A) (A) (A) (A) (A) (A) (A) (A) (A) (A) (A) (A)
                 (A) (A) (A) (A) (A) (A) (A) (A) (A) (A) (A) (A)
                 (A) (A) (A) (A) (A) (A) (A) (A) (A) (A) (A) (A)
                 (A) (A) (A) (A) (A) (A) (A) (A) (A) (A) (A) (A)
       Virtual   (A) (A) (A) (A) (A) (A) (A) (A) (A) (A) (A) (A)
                 (A) (A) (A) (A) (A) (A) (A) (A) (A) (A) (A) (A)
                 (A) (A) (A) (A) (A) (A) (A) (A) (A) (A) (A) (A)
                 (A) (A) (A) (A) (A) (A) (A) (A) (A) (A) (A) (A)
                 (A) (A) (A) (A) (A) (A) (A) (A) (A) (A) (A) (A)
                 (A) (A) (A) (A) (A) (A) (A) (A) (A) (A) (A) (A)
                 (A) (A) (A) (A) (A) (A) (A) (A) (A) (A) (A) (A)
                 (A) (A) (A) (A) (A) (A) (A) (A) (A) (A) (A) (A)
                 (A) (A) (A) (A) (A) (A) (A) (A) (A) (A) (A) (A)
                 (A) (A) (A) (A) (A) (A) (A) (A) (A) (A) (A) (A)
                 (A) (A) (A) (A) (A) (A) (A) (A) (A) (A) (A) (A)
                 (A) (A) (A) (A) (A) (A) (A) (A) (A) (A) (A) (A)
                 (A) (A) (A) (A) (A) (A) (A) (A) (A) (A) (A) (A)
                 (A) (A) (A) (A) (A) (A) (A) (A) (A) (A) (A) (A)
                 (A) (A) (A) (A) (A) (A) (A) (A) (A) (A) (A) (A)
                 (A) (A) (A) (A) (A) (A) (A) (A) (A) (A) (A) (A)
                 (A) (A) (A) (A) (A) (A) (A) (A) (A) (A) (A) (A)
                 (A) (A) (A) (A) (A) (A) (A) (A) (A) (A) (A) (A)
                 (A) (A) (A) (A) (A) (A) (A) (A) (A) (A) (A) (A)
                 (A) (A) (A) (A) (A) (A) (A) (A) (A) (A) (A) (A)
                 (A) (A) (A) (A) (A) (A) (A) (A) (A) (A) (A) (A)
                 (A) (A) (A) (A) (A) (A) (A) (A) (A) (A) (A) (A)
                 (A) (A) (A) (A) (A) (A) (A) (A) (A) (A) (A) (A)
                 (A) (A) (A) (A) (A) (A) (A) (A) (A) (A) (A) (A)
                 (A) (A) (A) (A) (A) (A) (A) (A) (A) (A) (A) (A)
                 (A) (A) (A) (A) (A) (A) (A) (A) (A) (A) (A) (A)
                 (A) (A) (A) (A) (A) (A) (A) (A) (A) (A) (A) (A)
                 (A) (A) (A) (A) (A) (A) (A) (A) (A) (A) (A) (A)
                 (A) (A) (A) (A) (A) (A) (A) (A) (A) (A) (A) (A)
                 (A) (A) (A) (A) (A) (A) (A) (A) (A) (A) (A) (A)
                 (A) (A) (A) (A) (A) (A) (A) (A) (A) (A) (A) (A)
                 (A) (A) (A) (A) (A) (A) (A) (A) (A) (A) (A) (A)
 The electronic state of the initial guess is 1-A.
 Requested convergence on RMS density matrix=1.00D-08 within 128 cycles.
 Requested convergence on MAX density matrix=1.00D-06.
 Requested convergence on             energy=1.00D-06.
 No special actions if energy rises.
 Integral accuracy reduced to 1.0D-05 until final iterations.
 Initial convergence to 1.0D-05 achieved.  Increase integral accuracy.
 SCF Done:  E(RHF) =  -1295.53984091     A.U. after   15 cycles
             Convg  =    0.4301D-08             -V/T =  2.0009

 **********************************************************************

            Population analysis using the SCF density.

 **********************************************************************

 Orbital symmetries:
       Occupied  (A) (A) (A) (A) (A) (A) (A) (A) (A) (A) (A) (A)
                 (A) (A) (A) (A) (A) (A) (A) (A) (A) (A) (A) (A)
                 (A) (A) (A) (A) (A) (A) (A) (A) (A) (A) (A) (A)
                 (A) (A) (A) (A) (A) (A) (A) (A) (A) (A) (A) (A)
                 (A) (A) (A) (A) (A) (A) (A) (A) (A) (A) (A) (A)
                 (A) (A) (A) (A) (A) (A) (A) (A) (A) (A) (A) (A)
                 (A) (A) (A) (A) (A) (A) (A) (A) (A) (A) (A) (A)
                 (A) (A) (A) (A) (A) (A) (A) (A) (A) (A) (A) (A)
                 (A) (A) (A) (A) (A) (A) (A) (A) (A) (A) (A) (A)
       Virtual   (A) (A) (A) (A) (A) (A) (A) (A) (A) (A) (A) (A)
                 (A) (A) (A) (A) (A) (A) (A) (A) (A) (A) (A) (A)
                 (A) (A) (A) (A) (A) (A) (A) (A) (A) (A) (A) (A)
                 (A) (A) (A) (A) (A) (A) (A) (A) (A) (A) (A) (A)
                 (A) (A) (A) (A) (A) (A) (A) (A) (A) (A) (A) (A)
                 (A) (A) (A) (A) (A) (A) (A) (A) (A) (A) (A) (A)
                 (A) (A) (A) (A) (A) (A) (A) (A) (A) (A) (A) (A)
                 (A) (A) (A) (A) (A) (A) (A) (A) (A) (A) (A) (A)
                 (A) (A) (A) (A) (A) (A) (A) (A) (A) (A) (A) (A)
                 (A) (A) (A) (A) (A) (A) (A) (A) (A) (A) (A) (A)
                 (A) (A) (A) (A) (A) (A) (A) (A) (A) (A) (A) (A)
                 (A) (A) (A) (A) (A) (A) (A) (A) (A) (A) (A) (A)
                 (A) (A) (A) (A) (A) (A) (A) (A) (A) (A) (A) (A)
                 (A) (A) (A) (A) (A) (A) (A) (A) (A) (A) (A) (A)
                 (A) (A) (A) (A) (A) (A) (A) (A) (A) (A) (A) (A)
                 (A) (A) (A) (A) (A) (A) (A) (A) (A) (A) (A) (A)
                 (A) (A) (A) (A) (A) (A) (A) (A) (A) (A) (A) (A)
                 (A) (A) (A) (A) (A) (A) (A) (A) (A) (A) (A) (A)
                 (A) (A) (A) (A) (A) (A) (A) (A) (A) (A) (A) (A)
                 (A) (A) (A) (A) (A) (A) (A) (A) (A) (A) (A) (A)
                 (A) (A) (A) (A) (A) (A) (A) (A) (A) (A) (A) (A)
                 (A) (A) (A) (A) (A) (A) (A) (A) (A) (A) (A) (A)
                 (A) (A) (A) (A) (A) (A) (A) (A) (A) (A) (A) (A)
                 (A) (A) (A) (A) (A) (A) (A) (A) (A) (A) (A) (A)
                 (A) (A) (A) (A) (A) (A) (A) (A) (A) (A) (A) (A)
                 (A) (A) (A) (A) (A) (A) (A) (A) (A) (A) (A) (A)
                 (A) (A) (A) (A) (A) (A) (A) (A) (A) (A) (A) (A)
                 (A) (A) (A) (A) (A) (A) (A) (A) (A) (A) (A) (A)
                 (A) (A) (A) (A) (A) (A) (A) (A) (A) (A) (A) (A)
                 (A) (A) (A) (A) (A) (A) (A) (A) (A) (A) (A) (A)
                 (A) (A) (A) (A) (A) (A) (A) (A) (A) (A) (A) (A)
                 (A) (A) (A) (A) (A) (A) (A) (A) (A) (A) (A) (A)
 The electronic state is 1-A.
 Alpha  occ. eigenvalues --  -20.53983 -20.52120 -20.51571 -20.50973 -15.59999
 Alpha  occ. eigenvalues --  -15.58446 -15.57285 -15.56959 -11.36295 -11.34749
 Alpha  occ. eigenvalues --  -11.33780 -11.33058 -11.29560 -11.27892 -11.25600
 Alpha  occ. eigenvalues --  -11.24613 -11.24422 -11.24185 -11.22517 -11.22516
 Alpha  occ. eigenvalues --  -11.22129 -11.21313 -11.21261 -11.21226 -11.21093
 Alpha  occ. eigenvalues --  -11.20462 -11.19765 -11.18436  -1.41421  -1.40555
 Alpha  occ. eigenvalues --   -1.38826  -1.37534  -1.25960  -1.23209  -1.22970
 Alpha  occ. eigenvalues --   -1.22001  -1.10112  -1.08771  -1.06436  -1.03701
 Alpha  occ. eigenvalues --   -1.00833  -0.99059  -0.98271  -0.96399  -0.94722
 Alpha  occ. eigenvalues --   -0.94086  -0.91625  -0.87076  -0.85171  -0.82828
 Alpha  occ. eigenvalues --   -0.81289  -0.79031  -0.78931  -0.78232  -0.76281
 Alpha  occ. eigenvalues --   -0.72233  -0.71345  -0.70722  -0.69541  -0.68000
 Alpha  occ. eigenvalues --   -0.66918  -0.66365  -0.64273  -0.63777  -0.63259
 Alpha  occ. eigenvalues --   -0.63106  -0.62223  -0.61228  -0.61000  -0.60830
 Alpha  occ. eigenvalues --   -0.60514  -0.60075  -0.59664  -0.58645  -0.58156
 Alpha  occ. eigenvalues --   -0.57936  -0.57215  -0.56310  -0.55780  -0.55594
 Alpha  occ. eigenvalues --   -0.55142  -0.55036  -0.54533  -0.54159  -0.53688
 Alpha  occ. eigenvalues --   -0.53139  -0.52950  -0.52388  -0.52253  -0.51438
 Alpha  occ. eigenvalues --   -0.50622  -0.49350  -0.49015  -0.48179  -0.47988
 Alpha  occ. eigenvalues --   -0.47411  -0.46249  -0.45290  -0.43844  -0.42941
 Alpha  occ. eigenvalues --   -0.40916  -0.40698  -0.40563  -0.39778  -0.38925
 Alpha  occ. eigenvalues --   -0.38243  -0.37666  -0.32124
 Alpha virt. eigenvalues --    0.16698   0.18587   0.19462   0.20206   0.21209
 Alpha virt. eigenvalues --    0.22199   0.22765   0.23659   0.24010   0.24095
 Alpha virt. eigenvalues --    0.25357   0.26359   0.26903   0.27080   0.27565
 Alpha virt. eigenvalues --    0.28420   0.28684   0.29061   0.29189   0.29587
 Alpha virt. eigenvalues --    0.30500   0.30871   0.31274   0.31622   0.32222
 Alpha virt. eigenvalues --    0.32298   0.32874   0.33107   0.34083   0.34354
 Alpha virt. eigenvalues --    0.34758   0.34848   0.35165   0.35377   0.36196
 Alpha virt. eigenvalues --    0.36414   0.36901   0.37264   0.37683   0.38049
 Alpha virt. eigenvalues --    0.38375   0.38899   0.40115   0.40474   0.41311
 Alpha virt. eigenvalues --    0.41893   0.42651   0.42967   0.44153   0.44568
 Alpha virt. eigenvalues --    0.45328   0.45683   0.46496   0.47754   0.49079
 Alpha virt. eigenvalues --    0.49549   0.50184   0.52616   0.53450   0.54042
 Alpha virt. eigenvalues --    0.55327   0.56312   0.58408   0.59090   0.60324
 Alpha virt. eigenvalues --    0.62925   0.63957   0.66777   0.69081   0.70782
 Alpha virt. eigenvalues --    0.71154   0.71875   0.72152   0.73026   0.73446
 Alpha virt. eigenvalues --    0.74364   0.74652   0.75948   0.76607   0.76926
 Alpha virt. eigenvalues --    0.77348   0.78075   0.78545   0.78917   0.79560
 Alpha virt. eigenvalues --    0.80433   0.80977   0.82140   0.82976   0.84090
 Alpha virt. eigenvalues --    0.85073   0.85457   0.86024   0.86592   0.87147
 Alpha virt. eigenvalues --    0.87519   0.89265   0.89910   0.91065   0.91469
 Alpha virt. eigenvalues --    0.92197   0.92835   0.93085   0.93247   0.94695
 Alpha virt. eigenvalues --    0.95527   0.96379   0.96768   0.97346   0.97808
 Alpha virt. eigenvalues --    0.99198   0.99658   1.00574   1.00715   1.01417
 Alpha virt. eigenvalues --    1.02010   1.02606   1.03266   1.03718   1.03912
 Alpha virt. eigenvalues --    1.04919   1.05813   1.06820   1.07747   1.08142
 Alpha virt. eigenvalues --    1.08883   1.09391   1.10529   1.11158   1.11470
 Alpha virt. eigenvalues --    1.12396   1.13509   1.13837   1.14421   1.14793
 Alpha virt. eigenvalues --    1.15061   1.15249   1.15738   1.15966   1.16171
 Alpha virt. eigenvalues --    1.16920   1.17368   1.17691   1.17985   1.18470
 Alpha virt. eigenvalues --    1.18994   1.19108   1.19359   1.19944   1.20192
 Alpha virt. eigenvalues --    1.20324   1.20695   1.21663   1.21921   1.22207
 Alpha virt. eigenvalues --    1.22387   1.22578   1.23029   1.23178   1.23584
 Alpha virt. eigenvalues --    1.24162   1.25122   1.26233   1.26845   1.27372
 Alpha virt. eigenvalues --    1.28279   1.29278   1.29716   1.30080   1.30474
 Alpha virt. eigenvalues --    1.30899   1.31763   1.31873   1.32731   1.33450
 Alpha virt. eigenvalues --    1.34249   1.35429   1.36580   1.37662   1.39349
 Alpha virt. eigenvalues --    1.40500   1.41648   1.42758   1.44229   1.45108
 Alpha virt. eigenvalues --    1.46696   1.47440   1.48426   1.49368   1.50253
 Alpha virt. eigenvalues --    1.51807   1.53384   1.54997   1.57075   1.58218
 Alpha virt. eigenvalues --    1.58905   1.60089   1.61084   1.62051   1.62549
 Alpha virt. eigenvalues --    1.65242   1.66342   1.67146   1.68702   1.70341
 Alpha virt. eigenvalues --    1.71784   1.72641   1.74013   1.74980   1.75577
 Alpha virt. eigenvalues --    1.77215   1.77929   1.79023   1.80813   1.81174
 Alpha virt. eigenvalues --    1.84181   1.85348   1.88995   1.90301   1.90877
 Alpha virt. eigenvalues --    1.91380   1.92589   1.93164   1.94906   1.96421
 Alpha virt. eigenvalues --    1.97229   1.98816   1.99173   2.00601   2.04668
 Alpha virt. eigenvalues --    2.05697   2.06388   2.07507   2.08018   2.09553
 Alpha virt. eigenvalues --    2.10823   2.11644   2.12238   2.12532   2.13227
 Alpha virt. eigenvalues --    2.14140   2.15114   2.15833   2.16666   2.17022
 Alpha virt. eigenvalues --    2.17453   2.19053   2.19459   2.20104   2.21278
 Alpha virt. eigenvalues --    2.21765   2.22454   2.23123   2.23390   2.24737
 Alpha virt. eigenvalues --    2.26086   2.26318   2.27767   2.28448   2.29282
 Alpha virt. eigenvalues --    2.29700   2.30599   2.30645   2.31992   2.33314
 Alpha virt. eigenvalues --    2.34024   2.34809   2.35545   2.36316   2.37694
 Alpha virt. eigenvalues --    2.37962   2.38572   2.39842   2.40274   2.41652
 Alpha virt. eigenvalues --    2.41749   2.42879   2.43465   2.44493   2.45474
 Alpha virt. eigenvalues --    2.48205   2.48921   2.49560   2.50229   2.52316
 Alpha virt. eigenvalues --    2.53142   2.54093   2.55364   2.55804   2.56641
 Alpha virt. eigenvalues --    2.57894   2.58926   2.59851   2.61067   2.62193
 Alpha virt. eigenvalues --    2.62638   2.63813   2.64440   2.64966   2.65525
 Alpha virt. eigenvalues --    2.67052   2.68619   2.70270   2.70789   2.71883
 Alpha virt. eigenvalues --    2.73186   2.74128   2.74617   2.76014   2.76447
 Alpha virt. eigenvalues --    2.77802   2.78484   2.79059   2.80303   2.82191
 Alpha virt. eigenvalues --    2.83371   2.83516   2.84822   2.86967   2.87225
 Alpha virt. eigenvalues --    2.88332   2.89559   2.93588   2.94970   2.96446
 Alpha virt. eigenvalues --    2.97510   2.98527   2.99069   3.00027   3.01186
 Alpha virt. eigenvalues --    3.03336   3.05599   3.05874   3.06418   3.09480
 Alpha virt. eigenvalues --    3.11808   3.12342   3.13750   3.14853   3.16537
 Alpha virt. eigenvalues --    3.19225   3.19838   3.27714   3.29620   3.31220
 Alpha virt. eigenvalues --    3.34365   3.34997   3.38435   3.41092   3.42537
 Alpha virt. eigenvalues --    3.43287   3.46625   3.53490   3.56313   3.58150
 Alpha virt. eigenvalues --    3.59807   4.39045   4.42448   4.46655   4.47204
 Alpha virt. eigenvalues --    4.49777   4.52421   4.57002   4.58863   4.63663
 Alpha virt. eigenvalues --    4.63794   4.67393   4.68838   4.70668   4.71878
 Alpha virt. eigenvalues --    4.74528   4.78348   4.80089   4.84942   4.85993
 Alpha virt. eigenvalues --    4.88304   4.90434   4.94560   4.95936   5.01173
 Alpha virt. eigenvalues --    5.03120   5.15498   5.24224   5.24982
          Condensed to atoms (all electrons):
 Mulliken atomic charges:
              1
     1  C   -0.291164
     2  N   -0.772252
     3  C    0.778878
     4  O   -0.621837
     5  C    0.104400
     6  C   -0.468969
     7  C   -0.334662
     8  C   -0.304891
     9  C   -0.396939
    10  C   -0.090040
    11  C   -0.229931
    12  C   -0.347077
    13  C   -0.307209
    14  C   -0.327437
    15  C    0.090598
    16  C   -0.509496
    17  N   -0.787770
    18  C    0.767438
    19  C   -0.595402
    20  O   -0.614840
    21  C    0.821650
    22  O   -0.640907
    23  N   -0.804606
    24  C   -0.274732
    25  N   -0.843309
    26  C    0.744281
    27  C   -0.588825
    28  O   -0.591284
    29  H    0.192946
    30  H    0.211455
    31  H    0.170719
    32  H    0.399693
    33  H    0.194823
    34  H    0.148078
    35  H    0.213413
    36  H    0.163442
    37  H    0.182904
    38  H    0.169939
    39  H    0.164419
    40  H    0.221695
    41  H    0.170611
    42  H    0.195923
    43  H    0.151349
    44  H    0.168317
    45  H    0.151351
    46  H    0.144222
    47  H    0.197292
    48  H    0.170653
    49  H    0.186844
    50  H    0.182156
    51  H    0.148828
    52  H    0.224760
    53  H    0.390090
    54  H    0.209758
    55  H    0.208791
    56  H    0.175850
    57  H    0.394866
    58  H    0.165168
    59  H    0.199783
    60  H    0.182478
    61  H    0.384242
    62  H    0.219298
    63  H    0.177962
    64  H    0.202215
 Sum of Mulliken atomic charges =   0.00000
 Mulliken charges with hydrogens summed into heavy atoms:
              1
     1  C    0.283956
     2  N   -0.372559
     3  C    0.778878
     4  O   -0.621837
     5  C    0.104400
     6  C    0.087346
     7  C    0.011683
     8  C    0.029467
     9  C   -0.004634
    10  C    0.105883
    11  C   -0.078582
    12  C   -0.027408
    13  C    0.034306
    14  C    0.030061
    15  C    0.090598
    16  C    0.046248
    17  N   -0.397680
    18  C    0.767438
    19  C   -0.001003
    20  O   -0.614840
    21  C    0.821650
    22  O   -0.640907
    23  N   -0.409740
    24  C    0.272696
    25  N   -0.459068
    26  C    0.744281
    27  C    0.010651
    28  O   -0.591284
 Sum of Mulliken charges with hydrogens summed into heavy atoms =   0.00000
 Electronic spatial extent (au):  <R**2>=          19340.4256
 Charge=              0.0000 electrons
 Dipole moment (field-independent basis, Debye):
    X=              6.8254    Y=             -3.9695    Z=             -4.1794  Tot=              8.9337
 Quadrupole moment (field-independent basis, Debye-Ang):
   XX=           -164.0880   YY=           -163.4699   ZZ=           -169.1856
   XY=            -15.3034   XZ=             -1.5966   YZ=             -2.6248
 Traceless Quadrupole moment (field-independent basis, Debye-Ang):
   XX=              1.4932   YY=              2.1113   ZZ=             -3.6044
   XY=            -15.3034   XZ=             -1.5966   YZ=             -2.6248
 Octapole moment (field-independent basis, Debye-Ang**2):
  XXX=            522.7615  YYY=             21.9997  ZZZ=             -6.1270  XYY=            -87.6636
  XXY=           -198.2136  XXZ=            -83.5064  XZZ=             33.1159  YZZ=             20.5464
  YYZ=              4.1871  XYZ=            -30.2115
 Hexadecapole moment (field-independent basis, Debye-Ang**3):
 XXXX=         -21217.9498 YYYY=          -2046.2784 ZZZZ=          -1504.7091 XXXY=             26.0149
 XXXZ=           -218.6314 YYYX=           -134.5185 YYYZ=             20.5834 ZZZX=            -65.4494
 ZZZY=             15.3229 XXYY=          -3839.8508 XXZZ=          -3840.5899 YYZZ=           -580.0174
 XXYZ=              3.6492 YYXZ=            -64.8421 ZZXY=             -9.9316
 N-N= 2.775686258048D+03 E-N=-8.584267270321D+03  KE= 1.294430631468D+03
 1\1\GINC-MOSURA\SP\RHF\6-31G(d)\C20H36N4O4\MARIE\05-Dec-2019\0\\#SP HF
 /6-31G* Geom=(ModRedundant)\\paramfit run\\0,1\C,0,0.,0.,0.\N,0,1.4481
 87,0.,0.\C,0,2.1232,0.47592,1.072365\O,0,1.590179,0.696732,2.124447\C,
 0,3.650505,0.594143,0.921539\C,0,4.198902,1.549248,1.986845\C,0,4.3077
 51,-0.809116,1.023981\C,0,4.133566,-1.622781,2.319066\C,0,2.839421,-1.
 409362,3.129175\C,0,1.573845,-1.662285,2.343919\C,0,0.833052,-2.758628
 ,2.339926\C,0,1.070312,-4.029856,3.119311\C,0,0.177869,-4.186049,4.363
 785\C,0,-1.317108,-4.224467,4.019573\C,0,-2.317945,-4.55558,5.156823\C
 ,0,-3.735516,-4.468863,4.568246\N,0,-2.065556,-5.914699,5.615765\C,0,-
 2.701117,-6.427753,6.709335\C,0,-2.073719,-7.677391,7.283428\O,0,-3.68
 3967,-5.930272,7.184374\C,0,-2.059147,-3.590528,6.335984\O,0,-1.193689
 ,-3.828371,7.134947\N,0,-2.766309,-2.440294,6.365368\C,0,-2.609632,-1.
 51544,7.469135\N,0,3.997412,1.070275,-0.425452\C,0,3.587019,2.267163,-
 0.934086\C,0,4.328148,2.727659,-2.172145\O,0,2.697134,2.905425,-0.4473
 97\H,0,-0.403259,1.006147,0.\H,0,-0.36496,-0.516002,0.875939\H,0,-0.34
 5658,-0.522086,-0.883346\H,0,1.904244,0.070913,-0.879357\H,0,3.932135,
 1.22176,2.980082\H,0,5.28092,1.595925,1.9075\H,0,3.792711,2.540594,1.8
 48395\H,0,5.374584,-0.64325,0.891407\H,0,3.984642,-1.403324,0.174983\H
 ,0,4.168976,-2.669507,2.031438\H,0,4.982618,-1.461966,2.975284\H,0,2.8
 13074,-0.403811,3.528595\H,0,2.886096,-2.070904,3.98709\H,0,1.247873,-
 0.843451,1.723139\H,0,-0.046639,-2.756964,1.715505\H,0,2.105008,-4.090
 105,3.434336\H,0,0.905507,-4.878159,2.456126\H,0,0.480142,-5.095712,4.
 875173\H,0,0.379824,-3.376219,5.05242\H,0,-1.487973,-4.957256,3.233851
 \H,0,-1.603669,-3.261512,3.613433\H,0,-3.850418,-5.248267,3.823996\H,0
 ,-3.897042,-3.518214,4.070695\H,0,-4.49133,-4.61245,5.325787\H,0,-1.13
 5689,-6.241484,5.484351\H,0,-2.810318,-8.205125,7.869926\H,0,-1.254488
 ,-7.385729,7.93375\H,0,-1.682324,-8.329822,6.510431\H,0,-3.612989,-2.3
 92628,5.849452\H,0,-3.163748,-0.613342,7.245317\H,0,-1.565696,-1.26659
 ,7.591188\H,0,-2.973189,-1.935653,8.401338\H,0,4.82812,0.684785,-0.816
 437\H,0,3.710173,3.434604,-2.706288\H,0,4.588171,1.902533,-2.825678\H,
 0,5.244771,3.226201,-1.873716\\Version=EM64L-G09RevA.02\State=1-A\HF=-
 1295.5398409\RMSD=4.301e-09\Dipole=1.8707252,-0.1694494,-2.9707422\Qua
 drupole=10.1777381,-10.34026,0.1625218,-1.0629327,-5.5054578,1.8444052
 \PG=C01 [X(C20H36N4O4)]\\@


 IN SO FAR AS QUANTUM MECHANICS IS CORRECT, CHEMICAL 
 QUESTIONS ARE PROBLEMS IN APPLIED MATHEMATICS.

                    -- EYRING, WALTER, & KIMBALL, 1944
 Job cpu time:  0 days  0 hours  6 minutes 54.1 seconds.
 File lengths (MBytes):  RWF=    132 Int=      0 D2E=      0 Chk=     10 Scr=      1
 Normal termination of Gaussian 09 at Thu Dec  5 18:02:31 2019.
