 Entering Gaussian System, Link 0=g09
 Input=CHI2_170.gau
 Output=CHI2_170.log
 Initial command:
 /home/marie/Utilities//g09/l1.exe /tmp/g09/Gau-9182.inp -scrdir=/tmp/g09/
 Entering Link 1 = /home/marie/Utilities//g09/l1.exe PID=      9184.
  
 Copyright (c) 1988,1990,1992,1993,1995,1998,2003,2009, Gaussian, Inc.
                  All Rights Reserved.
  
 This is part of the Gaussian(R) 09 program.  It is based on
 the Gaussian(R) 03 system (copyright 2003, Gaussian, Inc.),
 the Gaussian(R) 98 system (copyright 1998, Gaussian, Inc.),
 the Gaussian(R) 94 system (copyright 1995, Gaussian, Inc.),
 the Gaussian 92(TM) system (copyright 1992, Gaussian, Inc.),
 the Gaussian 90(TM) system (copyright 1990, Gaussian, Inc.),
 the Gaussian 88(TM) system (copyright 1988, Gaussian, Inc.),
 the Gaussian 86(TM) system (copyright 1986, Carnegie Mellon
 University), and the Gaussian 82(TM) system (copyright 1983,
 Carnegie Mellon University). Gaussian is a federally registered
 trademark of Gaussian, Inc.
  
 This software contains proprietary and confidential information,
 including trade secrets, belonging to Gaussian, Inc.
  
 This software is provided under written license and may be
 used, copied, transmitted, or stored only in accord with that
 written license.
  
 The following legend is applicable only to US Government
 contracts under FAR:
  
                    RESTRICTED RIGHTS LEGEND
  
 Use, reproduction and disclosure by the US Government is
 subject to restrictions as set forth in subparagraphs (a)
 and (c) of the Commercial Computer Software - Restricted
 Rights clause in FAR 52.227-19.
  
 Gaussian, Inc.
 340 Quinnipiac St., Bldg. 40, Wallingford CT 06492
  
  
 ---------------------------------------------------------------
 Warning -- This program may not be used in any manner that
 competes with the business of Gaussian, Inc. or will provide
 assistance to any competitor of Gaussian, Inc.  The licensee
 of this program is prohibited from giving any competitor of
 Gaussian, Inc. access to this program.  By using this program,
 the user acknowledges that Gaussian, Inc. is engaged in the
 business of creating and licensing software in the field of
 computational chemistry and represents and warrants to the
 licensee that it is not a competitor of Gaussian, Inc. and that
 it will not use this program in any manner prohibited above.
 ---------------------------------------------------------------
  

 Cite this work as:
 Gaussian 09, Revision A.02,
 M. J. Frisch, G. W. Trucks, H. B. Schlegel, G. E. Scuseria, 
 M. A. Robb, J. R. Cheeseman, G. Scalmani, V. Barone, B. Mennucci, 
 G. A. Petersson, H. Nakatsuji, M. Caricato, X. Li, H. P. Hratchian, 
 A. F. Izmaylov, J. Bloino, G. Zheng, J. L. Sonnenberg, M. Hada, 
 M. Ehara, K. Toyota, R. Fukuda, J. Hasegawa, M. Ishida, T. Nakajima, 
 Y. Honda, O. Kitao, H. Nakai, T. Vreven, J. A. Montgomery, Jr., 
 J. E. Peralta, F. Ogliaro, M. Bearpark, J. J. Heyd, E. Brothers, 
 K. N. Kudin, V. N. Staroverov, R. Kobayashi, J. Normand, 
 K. Raghavachari, A. Rendell, J. C. Burant, S. S. Iyengar, J. Tomasi, 
 M. Cossi, N. Rega, J. M. Millam, M. Klene, J. E. Knox, J. B. Cross, 
 V. Bakken, C. Adamo, J. Jaramillo, R. Gomperts, R. E. Stratmann, 
 O. Yazyev, A. J. Austin, R. Cammi, C. Pomelli, J. W. Ochterski, 
 R. L. Martin, K. Morokuma, V. G. Zakrzewski, G. A. Voth, 
 P. Salvador, J. J. Dannenberg, S. Dapprich, A. D. Daniels, 
 O. Farkas, J. B. Foresman, J. V. Ortiz, J. Cioslowski, 
 and D. J. Fox, Gaussian, Inc., Wallingford CT, 2009.
 
 ******************************************
 Gaussian 09:  EM64L-G09RevA.02 11-Jun-2009
                 5-Dec-2019 
 ******************************************
 %chk=CHI2_170
 %NoSave
 ---------------------------------
 #SP HF/6-31G* Geom=(ModRedundant)
 ---------------------------------
 1/18=120,38=1/1;
 2/12=2,17=6,18=5,40=1/2;
 3/5=1,6=6,7=1,11=9,16=1,25=1,30=1/1,2,3;
 4//1;
 5/5=2,38=5/2;
 6/7=2,8=2,9=2,10=2,28=1/1;
 99/5=1,9=1/99;
 ------------
 paramfit run
 ------------
 Symbolic Z-matrix:
 Charge =  0 Multiplicity = 1
 C-CT--0.3208          0.        0.        0. 
 N-N--0.5622           1.44819   0.        0. 
 C-C-0.8053            2.1232    0.47592   1.07237 
 O-O--0.6151           1.59018   0.69673   2.12445 
 C-CX-0.0839           3.65051   0.59414   0.92154 
 C-CU--0.3230          4.1989    1.54925   1.98685 
 C-CU--0.0657          4.30775  -0.80912   1.02398 
 C-CU--0.0109          4.13357  -1.62278   2.31907 
 C-CU-0.0816           4.59137  -3.09481   2.30588 
 C-CM--0.2354          6.04111  -3.28436   1.92565 
 C-CM--0.2653          7.07095  -3.46147   2.73733 
 C-CU-0.1214           7.05192  -3.51693   4.24607 
 C-CU--0.0354          7.15131  -4.93807   4.82922 
 C-CU--0.0984          8.45426  -5.64867   4.439 
 C-CU-0.1300           8.76481  -7.01578   5.10175 
 C-CU--0.3561          10.07987  -7.53632   4.49917 
 N-N--0.7186           8.93552  -6.80915   6.53342 
 C-C-0.8537            9.07587  -7.8594    7.39384 
 C-CT--0.3868          8.86166  -7.52226   8.85166 
 O-O--0.6323           9.34881  -8.96888   7.02817 
 C-C-0.7903            7.55359  -7.95188   4.88875 
 O-O--0.6136           6.6079   -7.89695   5.62806 
 N-N--0.5650           7.56386  -8.74353   3.7946 
 C-CT--0.3231          6.48434  -9.68096   3.56208 
 N-N--0.7191           3.99741   1.07028  -0.42545 
 C-C-0.8539            3.58702   2.26716  -0.93409 
 C-CT--0.3903          4.32815   2.72766  -2.17214 
 O-O--0.6290           2.69713   2.90543  -0.4474 
 H-H1-0.1459          -0.40326   1.00615   0. 
 H-H1-0.1459          -0.36496  -0.516     0.87594 
 H-H1-0.1459          -0.34566  -0.52209  -0.88335 
 H-H-0.3572            1.90424   0.07091  -0.87936 
 H-HC-0.0997           3.93214   1.22176   2.98008 
 H-HC-0.0997           5.28092   1.59593   1.9075 
 H-HC-0.0997           3.79271   2.54059   1.8484 
 H-HC-0.0347           5.37458  -0.64325   0.89141 
 H-HC-0.0347           3.98464  -1.40332   0.17498 
 H-HC-0.0243           4.70881  -1.10955   3.08412 
 H-HC-0.0243           3.09909  -1.58542   2.64439 
 H-HC-0.0171           3.97052  -3.67062   1.63182 
 H-HC-0.0171           4.40882  -3.49565   3.29676 
 H-HA-0.1313           6.24242  -3.27593   0.86663 
 H-HA-0.1359           8.04135  -3.58559   2.28271 
 H-HC-0.0092           6.14891  -3.05616   4.62783 
 H-HC-0.0092           7.8804   -2.91959   4.62474 
 H-HC-0.0318           7.06271  -4.8591    5.90917 
 H-HC-0.0318           6.29902  -5.51904   4.50226 
 H-HC-0.0435           9.29922  -4.99942   4.6582 
 H-HC-0.0435           8.45453  -5.80702   3.36696 
 H-HC-0.1066           10.88245  -6.86774   4.78805 
 H-HC-0.1066           10.03897  -7.54535   3.41491 
 H-HC-0.1066           10.31951  -8.52558   4.85929 
 H-H-0.3529            8.45317  -6.02533   6.90983 
 H-HC-0.1047           9.34104  -8.27248   9.46193 
 H-HC-0.1047           7.79541  -7.53565   9.05674 
 H-HC-0.1047           9.24718  -6.54054   9.10457 
 H-H-0.3615            8.43459  -8.93618   3.35868 
 H-H1-0.1469           6.6174   -10.12559   2.58457 
 H-H1-0.1469           5.53796  -9.16097   3.58679 
 H-H1-0.1469           6.46403  -10.46571   4.31142 
 H-H-0.3570            4.82812   0.68479  -0.81644 
 H-HC-0.1060           3.71017   3.4346   -2.70629 
 H-HC-0.1060           4.58817   1.90253  -2.82568 
 H-HC-0.1060           5.24477   3.2262   -1.87372 
 
 The following ModRedundant input section has been read:
 D    *    7    8    * F                                                       
 Stoichiometry    C20H36N4O4
 Framework group  C1[X(C20H36N4O4)]
 Deg. of freedom   186
 Full point group                 C1      NOp   1
 Largest Abelian subgroup         C1      NOp   1
 Largest concise Abelian subgroup C1      NOp   1
                         Standard orientation:                         
 ---------------------------------------------------------------------
 Center     Atomic      Atomic             Coordinates (Angstroms)
 Number     Number       Type             X           Y           Z
 ---------------------------------------------------------------------
      1          6    20001001        6.572227    2.929851    0.885674
      2          7    20001014        5.899056    1.814193    0.253697
      3          6    20001002        5.426777    0.795097    1.009014
      4          8    20001024        5.335686    0.865390    2.203378
      5          6    90000001        4.877067   -0.423646    0.246209
      6          6    90000002        4.824011   -1.634515    1.183664
      7          6    90000002        3.477120   -0.098777   -0.342190
      8          6    90000002        2.332286    0.274978    0.616610
      9          6    90000002        1.029133    0.817900   -0.002795
     10          6    20001004        0.395949   -0.109387   -1.013484
     11          6    20001004       -0.603050   -0.954531   -0.817293
     12          6    90000002       -1.357369   -1.202179    0.467007
     13          6    90000002       -2.741312   -0.531001    0.528537
     14          6    90000002       -3.689675   -1.027134   -0.571179
     15          6    90000002       -5.169602   -0.567021   -0.518678
     16          6    90000002       -5.880399   -1.146126   -1.752719
     17          7    20001014       -5.779988   -1.104728    0.689556
     18          6    20001002       -7.039327   -0.744491    1.073422
     19          6    20001001       -7.386074   -1.069965    2.508216
     20          8    20001024       -7.817800   -0.209956    0.333560
     21          6    20001002       -5.202067    0.975760   -0.432093
     22          8    20001024       -5.075270    1.525954    0.628632
     23          7    20001014       -5.273124    1.662738   -1.592694
     24          6    20001001       -5.358456    3.108689   -1.580662
     25          7    20001014        5.714987   -0.715514   -0.926025
     26          6    20001002        7.040782   -1.025678   -0.850269
     27          6    20001001        7.631687   -1.633131   -2.105638
     28          8    20001024        7.697082   -0.822802    0.131694
     29          1    20001035        7.509252    2.630130    1.340759
     30          1    20001035        5.938367    3.352218    1.651540
     31          1    20001035        6.766582    3.686147    0.135610
     32          1    20001029        6.160617    1.592333   -0.678317
     33          1    20001034        4.228829   -1.425168    2.059372
     34          1    20001034        4.393785   -2.480835    0.656515
     35          1    20001034        5.817612   -1.895840    1.517420
     36          1    20001034        3.168215   -0.995264   -0.875209
     37          1    20001034        3.590829    0.677163   -1.092701
     38          1    20001034        2.081208   -0.629611    1.162777
     39          1    20001034        2.685332    0.985436    1.356869
     40          1    20001034        1.211251    1.777733   -0.468542
     41          1    20001034        0.341286    1.007326    0.813793
     42          1    20001033        0.815336   -0.061836   -2.005435
     43          1    20001033       -0.929090   -1.537631   -1.664320
     44          1    20001034       -0.776992   -0.860937    1.315643
     45          1    20001034       -1.478637   -2.277091    0.595274
     46          1    20001034       -3.157991   -0.722501    1.513464
     47          1    20001034       -2.621527    0.542176    0.459454
     48          1    20001034       -3.703629   -2.114947   -0.572192
     49          1    20001034       -3.294854   -0.720988   -1.532814
     50          1    20001034       -5.893588   -2.226683   -1.670234
     51          1    20001034       -5.349351   -0.896449   -2.665425
     52          1    20001034       -6.901078   -0.801242   -1.823483
     53          1    20001029       -5.151924   -1.282481    1.439658
     54          1    20001034       -8.459797   -1.103864    2.613246
     55          1    20001034       -6.998534   -0.280653    3.145337
     56          1    20001034       -6.954902   -2.012150    2.828780
     57          1    20001029       -5.612835    1.194321   -2.399226
     58          1    20001035       -5.283876    3.467665   -2.598746
     59          1    20001035       -4.542979    3.517457   -1.002274
     60          1    20001035       -6.292167    3.453416   -1.148108
     61          1    20001029        5.228720   -1.044920   -1.730129
     62          1    20001034        8.701173   -1.481146   -2.097039
     63          1    20001034        7.208783   -1.204681   -3.007377
     64          1    20001034        7.434236   -2.700265   -2.111915
 ---------------------------------------------------------------------
 Rotational constants (GHZ):      0.4011003      0.0420998      0.0415347
 Standard basis: 6-31G(d) (6D, 7F)
 There are   492 symmetry adapted basis functions of A   symmetry.
 Integral buffers will be    131072 words long.
 Raffenetti 1 integral format.
 Two-electron integral symmetry is turned on.
   492 basis functions,   928 primitive gaussians,   492 cartesian basis functions
   108 alpha electrons      108 beta electrons
       nuclear repulsion energy      2618.2621118710 Hartrees.
 NAtoms=   64 NActive=   64 NUniq=   64 SFac= 7.50D-01 NAtFMM=   80 NAOKFM=F Big=T
 One-electron integrals computed using PRISM.
 NBasis=   492 RedAO= T  NBF=   492
 NBsUse=   492 1.00D-06 NBFU=   492
 Harris functional with IExCor=  205 diagonalized for initial guess.
 ExpMin= 1.61D-01 ExpMax= 5.48D+03 ExpMxC= 8.25D+02 IAcc=1 IRadAn=         1 AccDes= 0.00D+00
 HarFok:  IExCor=  205 AccDes= 0.00D+00 IRadAn=         1 IDoV= 1
 ScaDFX=  1.000000  1.000000  1.000000  1.000000
 FoFCou: FMM=F IPFlag=           0 FMFlag=      100000 FMFlg1=           1
         NFxFlg=           0 DoJE=T BraDBF=F KetDBF=T FulRan=T
         Omega=  0.000000  0.000000  1.000000  0.000000  0.000000 ICntrl=     500 IOpCl=  0
         NMat0=    1 NMatS0=    1 NMatT0=    0 NMatD0=    1 NMtDS0=    0 NMtDT0=    0
         I1Cent=           4 NGrid=           0.
 Petite list used in FoFCou.
 Initial guess orbital symmetries:
       Occupied  (A) (A) (A) (A) (A) (A) (A) (A) (A) (A) (A) (A)
                 (A) (A) (A) (A) (A) (A) (A) (A) (A) (A) (A) (A)
                 (A) (A) (A) (A) (A) (A) (A) (A) (A) (A) (A) (A)
                 (A) (A) (A) (A) (A) (A) (A) (A) (A) (A) (A) (A)
                 (A) (A) (A) (A) (A) (A) (A) (A) (A) (A) (A) (A)
                 (A) (A) (A) (A) (A) (A) (A) (A) (A) (A) (A) (A)
                 (A) (A) (A) (A) (A) (A) (A) (A) (A) (A) (A) (A)
                 (A) (A) (A) (A) (A) (A) (A) (A) (A) (A) (A) (A)
                 (A) (A) (A) (A) (A) (A) (A) (A) (A) (A) (A) (A)
       Virtual   (A) (A) (A) (A) (A) (A) (A) (A) (A) (A) (A) (A)
                 (A) (A) (A) (A) (A) (A) (A) (A) (A) (A) (A) (A)
                 (A) (A) (A) (A) (A) (A) (A) (A) (A) (A) (A) (A)
                 (A) (A) (A) (A) (A) (A) (A) (A) (A) (A) (A) (A)
                 (A) (A) (A) (A) (A) (A) (A) (A) (A) (A) (A) (A)
                 (A) (A) (A) (A) (A) (A) (A) (A) (A) (A) (A) (A)
                 (A) (A) (A) (A) (A) (A) (A) (A) (A) (A) (A) (A)
                 (A) (A) (A) (A) (A) (A) (A) (A) (A) (A) (A) (A)
                 (A) (A) (A) (A) (A) (A) (A) (A) (A) (A) (A) (A)
                 (A) (A) (A) (A) (A) (A) (A) (A) (A) (A) (A) (A)
                 (A) (A) (A) (A) (A) (A) (A) (A) (A) (A) (A) (A)
                 (A) (A) (A) (A) (A) (A) (A) (A) (A) (A) (A) (A)
                 (A) (A) (A) (A) (A) (A) (A) (A) (A) (A) (A) (A)
                 (A) (A) (A) (A) (A) (A) (A) (A) (A) (A) (A) (A)
                 (A) (A) (A) (A) (A) (A) (A) (A) (A) (A) (A) (A)
                 (A) (A) (A) (A) (A) (A) (A) (A) (A) (A) (A) (A)
                 (A) (A) (A) (A) (A) (A) (A) (A) (A) (A) (A) (A)
                 (A) (A) (A) (A) (A) (A) (A) (A) (A) (A) (A) (A)
                 (A) (A) (A) (A) (A) (A) (A) (A) (A) (A) (A) (A)
                 (A) (A) (A) (A) (A) (A) (A) (A) (A) (A) (A) (A)
                 (A) (A) (A) (A) (A) (A) (A) (A) (A) (A) (A) (A)
                 (A) (A) (A) (A) (A) (A) (A) (A) (A) (A) (A) (A)
                 (A) (A) (A) (A) (A) (A) (A) (A) (A) (A) (A) (A)
                 (A) (A) (A) (A) (A) (A) (A) (A) (A) (A) (A) (A)
                 (A) (A) (A) (A) (A) (A) (A) (A) (A) (A) (A) (A)
                 (A) (A) (A) (A) (A) (A) (A) (A) (A) (A) (A) (A)
                 (A) (A) (A) (A) (A) (A) (A) (A) (A) (A) (A) (A)
                 (A) (A) (A) (A) (A) (A) (A) (A) (A) (A) (A) (A)
                 (A) (A) (A) (A) (A) (A) (A) (A) (A) (A) (A) (A)
                 (A) (A) (A) (A) (A) (A) (A) (A) (A) (A) (A) (A)
                 (A) (A) (A) (A) (A) (A) (A) (A) (A) (A) (A) (A)
                 (A) (A) (A) (A) (A) (A) (A) (A) (A) (A) (A) (A)
 The electronic state of the initial guess is 1-A.
 Requested convergence on RMS density matrix=1.00D-08 within 128 cycles.
 Requested convergence on MAX density matrix=1.00D-06.
 Requested convergence on             energy=1.00D-06.
 No special actions if energy rises.
 Integral accuracy reduced to 1.0D-05 until final iterations.
 Initial convergence to 1.0D-05 achieved.  Increase integral accuracy.
 SCF Done:  E(RHF) =  -1295.62343013     A.U. after   14 cycles
             Convg  =    0.5972D-08             -V/T =  2.0013

 **********************************************************************

            Population analysis using the SCF density.

 **********************************************************************

 Orbital symmetries:
       Occupied  (A) (A) (A) (A) (A) (A) (A) (A) (A) (A) (A) (A)
                 (A) (A) (A) (A) (A) (A) (A) (A) (A) (A) (A) (A)
                 (A) (A) (A) (A) (A) (A) (A) (A) (A) (A) (A) (A)
                 (A) (A) (A) (A) (A) (A) (A) (A) (A) (A) (A) (A)
                 (A) (A) (A) (A) (A) (A) (A) (A) (A) (A) (A) (A)
                 (A) (A) (A) (A) (A) (A) (A) (A) (A) (A) (A) (A)
                 (A) (A) (A) (A) (A) (A) (A) (A) (A) (A) (A) (A)
                 (A) (A) (A) (A) (A) (A) (A) (A) (A) (A) (A) (A)
                 (A) (A) (A) (A) (A) (A) (A) (A) (A) (A) (A) (A)
       Virtual   (A) (A) (A) (A) (A) (A) (A) (A) (A) (A) (A) (A)
                 (A) (A) (A) (A) (A) (A) (A) (A) (A) (A) (A) (A)
                 (A) (A) (A) (A) (A) (A) (A) (A) (A) (A) (A) (A)
                 (A) (A) (A) (A) (A) (A) (A) (A) (A) (A) (A) (A)
                 (A) (A) (A) (A) (A) (A) (A) (A) (A) (A) (A) (A)
                 (A) (A) (A) (A) (A) (A) (A) (A) (A) (A) (A) (A)
                 (A) (A) (A) (A) (A) (A) (A) (A) (A) (A) (A) (A)
                 (A) (A) (A) (A) (A) (A) (A) (A) (A) (A) (A) (A)
                 (A) (A) (A) (A) (A) (A) (A) (A) (A) (A) (A) (A)
                 (A) (A) (A) (A) (A) (A) (A) (A) (A) (A) (A) (A)
                 (A) (A) (A) (A) (A) (A) (A) (A) (A) (A) (A) (A)
                 (A) (A) (A) (A) (A) (A) (A) (A) (A) (A) (A) (A)
                 (A) (A) (A) (A) (A) (A) (A) (A) (A) (A) (A) (A)
                 (A) (A) (A) (A) (A) (A) (A) (A) (A) (A) (A) (A)
                 (A) (A) (A) (A) (A) (A) (A) (A) (A) (A) (A) (A)
                 (A) (A) (A) (A) (A) (A) (A) (A) (A) (A) (A) (A)
                 (A) (A) (A) (A) (A) (A) (A) (A) (A) (A) (A) (A)
                 (A) (A) (A) (A) (A) (A) (A) (A) (A) (A) (A) (A)
                 (A) (A) (A) (A) (A) (A) (A) (A) (A) (A) (A) (A)
                 (A) (A) (A) (A) (A) (A) (A) (A) (A) (A) (A) (A)
                 (A) (A) (A) (A) (A) (A) (A) (A) (A) (A) (A) (A)
                 (A) (A) (A) (A) (A) (A) (A) (A) (A) (A) (A) (A)
                 (A) (A) (A) (A) (A) (A) (A) (A) (A) (A) (A) (A)
                 (A) (A) (A) (A) (A) (A) (A) (A) (A) (A) (A) (A)
                 (A) (A) (A) (A) (A) (A) (A) (A) (A) (A) (A) (A)
                 (A) (A) (A) (A) (A) (A) (A) (A) (A) (A) (A) (A)
                 (A) (A) (A) (A) (A) (A) (A) (A) (A) (A) (A) (A)
                 (A) (A) (A) (A) (A) (A) (A) (A) (A) (A) (A) (A)
                 (A) (A) (A) (A) (A) (A) (A) (A) (A) (A) (A) (A)
                 (A) (A) (A) (A) (A) (A) (A) (A) (A) (A) (A) (A)
                 (A) (A) (A) (A) (A) (A) (A) (A) (A) (A) (A) (A)
                 (A) (A) (A) (A) (A) (A) (A) (A) (A) (A) (A) (A)
 The electronic state is 1-A.
 Alpha  occ. eigenvalues --  -20.53548 -20.52221 -20.51867 -20.51551 -15.59520
 Alpha  occ. eigenvalues --  -15.58187 -15.57721 -15.57125 -11.35885 -11.34424
 Alpha  occ. eigenvalues --  -11.33949 -11.33557 -11.29037 -11.28819 -11.25300
 Alpha  occ. eigenvalues --  -11.24591 -11.24298 -11.23956 -11.23701 -11.22980
 Alpha  occ. eigenvalues --  -11.22936 -11.22880 -11.22779 -11.22705 -11.22638
 Alpha  occ. eigenvalues --  -11.22607 -11.22028 -11.20741  -1.40476  -1.39589
 Alpha  occ. eigenvalues --   -1.38357  -1.38318  -1.25315  -1.23758  -1.22897
 Alpha  occ. eigenvalues --   -1.21733  -1.11202  -1.09388  -1.07491  -1.04549
 Alpha  occ. eigenvalues --   -1.01397  -0.99432  -0.98896  -0.95384  -0.95221
 Alpha  occ. eigenvalues --   -0.94816  -0.92459  -0.87214  -0.85830  -0.83129
 Alpha  occ. eigenvalues --   -0.81634  -0.79723  -0.78916  -0.77126  -0.76851
 Alpha  occ. eigenvalues --   -0.72363  -0.71521  -0.71007  -0.69199  -0.68204
 Alpha  occ. eigenvalues --   -0.67045  -0.65446  -0.64687  -0.63989  -0.63816
 Alpha  occ. eigenvalues --   -0.63020  -0.62298  -0.62184  -0.61634  -0.61377
 Alpha  occ. eigenvalues --   -0.60783  -0.60061  -0.59468  -0.58969  -0.58797
 Alpha  occ. eigenvalues --   -0.57829  -0.57735  -0.56853  -0.56591  -0.56185
 Alpha  occ. eigenvalues --   -0.55273  -0.55102  -0.54910  -0.54255  -0.53857
 Alpha  occ. eigenvalues --   -0.53345  -0.53178  -0.52405  -0.51995  -0.51784
 Alpha  occ. eigenvalues --   -0.51458  -0.50788  -0.50014  -0.49322  -0.48750
 Alpha  occ. eigenvalues --   -0.48439  -0.47270  -0.46723  -0.45203  -0.42715
 Alpha  occ. eigenvalues --   -0.41936  -0.41748  -0.41245  -0.39096  -0.39082
 Alpha  occ. eigenvalues --   -0.38551  -0.37930  -0.35170
 Alpha virt. eigenvalues --    0.16752   0.18906   0.19436   0.20212   0.20900
 Alpha virt. eigenvalues --    0.21380   0.21793   0.22978   0.23589   0.24293
 Alpha virt. eigenvalues --    0.24764   0.25279   0.26104   0.26840   0.27393
 Alpha virt. eigenvalues --    0.27496   0.28184   0.28621   0.29161   0.29478
 Alpha virt. eigenvalues --    0.30040   0.30345   0.30846   0.31062   0.31593
 Alpha virt. eigenvalues --    0.31834   0.32159   0.32555   0.32885   0.33316
 Alpha virt. eigenvalues --    0.33480   0.33714   0.34155   0.34491   0.34653
 Alpha virt. eigenvalues --    0.35124   0.35630   0.35861   0.36158   0.36560
 Alpha virt. eigenvalues --    0.37651   0.38128   0.38825   0.39004   0.39446
 Alpha virt. eigenvalues --    0.40365   0.40956   0.42205   0.42464   0.43337
 Alpha virt. eigenvalues --    0.43920   0.44929   0.45076   0.45743   0.46885
 Alpha virt. eigenvalues --    0.48360   0.48885   0.48907   0.51899   0.52575
 Alpha virt. eigenvalues --    0.53718   0.55602   0.57645   0.58932   0.59619
 Alpha virt. eigenvalues --    0.62193   0.63359   0.64300   0.69459   0.69870
 Alpha virt. eigenvalues --    0.70250   0.70974   0.71615   0.72332   0.72499
 Alpha virt. eigenvalues --    0.73328   0.74608   0.74914   0.75666   0.76325
 Alpha virt. eigenvalues --    0.76446   0.77083   0.77545   0.78274   0.78419
 Alpha virt. eigenvalues --    0.78625   0.79667   0.80494   0.81721   0.82571
 Alpha virt. eigenvalues --    0.82981   0.83898   0.84255   0.85299   0.86697
 Alpha virt. eigenvalues --    0.87159   0.87670   0.88334   0.88631   0.90311
 Alpha virt. eigenvalues --    0.90999   0.91869   0.92273   0.92899   0.93641
 Alpha virt. eigenvalues --    0.93778   0.95670   0.96687   0.96941   0.97725
 Alpha virt. eigenvalues --    0.98763   0.99307   0.99419   0.99900   1.00638
 Alpha virt. eigenvalues --    1.01300   1.01410   1.01955   1.02321   1.03283
 Alpha virt. eigenvalues --    1.03731   1.04256   1.05521   1.06796   1.06904
 Alpha virt. eigenvalues --    1.07316   1.07948   1.09954   1.10249   1.10410
 Alpha virt. eigenvalues --    1.12562   1.12894   1.13276   1.13702   1.14068
 Alpha virt. eigenvalues --    1.14267   1.14616   1.14774   1.14876   1.15262
 Alpha virt. eigenvalues --    1.15638   1.15868   1.16240   1.16969   1.17809
 Alpha virt. eigenvalues --    1.17842   1.18277   1.18577   1.18777   1.19010
 Alpha virt. eigenvalues --    1.19590   1.19896   1.20266   1.20508   1.20880
 Alpha virt. eigenvalues --    1.21253   1.21498   1.22022   1.22165   1.22422
 Alpha virt. eigenvalues --    1.23272   1.23287   1.23695   1.24720   1.25381
 Alpha virt. eigenvalues --    1.26240   1.26391   1.27672   1.27933   1.28226
 Alpha virt. eigenvalues --    1.28728   1.29655   1.30048   1.30955   1.32169
 Alpha virt. eigenvalues --    1.32376   1.32559   1.34711   1.35497   1.37524
 Alpha virt. eigenvalues --    1.38361   1.38784   1.39426   1.40630   1.41930
 Alpha virt. eigenvalues --    1.42142   1.44121   1.45685   1.47572   1.47959
 Alpha virt. eigenvalues --    1.48903   1.51034   1.52014   1.54146   1.55015
 Alpha virt. eigenvalues --    1.56625   1.58365   1.59051   1.60096   1.61047
 Alpha virt. eigenvalues --    1.61366   1.62613   1.63458   1.66650   1.68138
 Alpha virt. eigenvalues --    1.69340   1.71307   1.72026   1.72733   1.72946
 Alpha virt. eigenvalues --    1.73608   1.74726   1.76358   1.78150   1.79174
 Alpha virt. eigenvalues --    1.80196   1.82447   1.83615   1.85547   1.87755
 Alpha virt. eigenvalues --    1.88920   1.89899   1.91274   1.91683   1.93407
 Alpha virt. eigenvalues --    1.95631   1.96363   1.98266   1.98408   2.02765
 Alpha virt. eigenvalues --    2.04326   2.05703   2.06421   2.06899   2.07187
 Alpha virt. eigenvalues --    2.09759   2.10389   2.11464   2.11848   2.12286
 Alpha virt. eigenvalues --    2.12856   2.13865   2.14243   2.15832   2.16142
 Alpha virt. eigenvalues --    2.16406   2.16924   2.17992   2.18614   2.19511
 Alpha virt. eigenvalues --    2.20035   2.20860   2.21447   2.22286   2.23149
 Alpha virt. eigenvalues --    2.24181   2.25095   2.25394   2.26751   2.27322
 Alpha virt. eigenvalues --    2.28015   2.28920   2.29398   2.30265   2.31637
 Alpha virt. eigenvalues --    2.32579   2.33393   2.33876   2.34778   2.35260
 Alpha virt. eigenvalues --    2.36133   2.36681   2.37086   2.38314   2.39006
 Alpha virt. eigenvalues --    2.39132   2.40767   2.41851   2.42738   2.43527
 Alpha virt. eigenvalues --    2.43970   2.44480   2.46977   2.47737   2.49895
 Alpha virt. eigenvalues --    2.51432   2.52857   2.53734   2.54583   2.55865
 Alpha virt. eigenvalues --    2.56979   2.57129   2.57700   2.58027   2.60151
 Alpha virt. eigenvalues --    2.62862   2.63424   2.64104   2.64795   2.65428
 Alpha virt. eigenvalues --    2.66341   2.68182   2.68585   2.69955   2.71276
 Alpha virt. eigenvalues --    2.72020   2.72611   2.73565   2.74764   2.74916
 Alpha virt. eigenvalues --    2.76367   2.76957   2.77562   2.78668   2.79317
 Alpha virt. eigenvalues --    2.81354   2.82090   2.83914   2.84557   2.86097
 Alpha virt. eigenvalues --    2.87748   2.88431   2.90080   2.91776   2.95555
 Alpha virt. eigenvalues --    2.96093   2.97481   2.98271   2.98693   3.00600
 Alpha virt. eigenvalues --    3.03265   3.04463   3.05272   3.06330   3.08556
 Alpha virt. eigenvalues --    3.10793   3.11610   3.12922   3.14816   3.15400
 Alpha virt. eigenvalues --    3.17303   3.19375   3.21067   3.29460   3.30360
 Alpha virt. eigenvalues --    3.34168   3.34558   3.38775   3.39993   3.40582
 Alpha virt. eigenvalues --    3.42472   3.42693   3.53385   3.55471   3.57376
 Alpha virt. eigenvalues --    3.60407   4.38178   4.40542   4.44347   4.47031
 Alpha virt. eigenvalues --    4.48953   4.51700   4.54560   4.57454   4.60323
 Alpha virt. eigenvalues --    4.62705   4.66243   4.67465   4.67960   4.69940
 Alpha virt. eigenvalues --    4.72712   4.75721   4.77712   4.82878   4.83908
 Alpha virt. eigenvalues --    4.87656   4.88928   4.93141   4.94532   4.96460
 Alpha virt. eigenvalues --    5.01679   5.10481   5.19679   5.23315
          Condensed to atoms (all electrons):
 Mulliken atomic charges:
              1
     1  C   -0.278315
     2  N   -0.781879
     3  C    0.816825
     4  O   -0.624511
     5  C    0.102874
     6  C   -0.473577
     7  C   -0.331536
     8  C   -0.315142
     9  C   -0.352676
    10  C   -0.175556
    11  C   -0.172896
    12  C   -0.356827
    13  C   -0.311157
    14  C   -0.329446
    15  C    0.091214
    16  C   -0.509712
    17  N   -0.787478
    18  C    0.767103
    19  C   -0.595788
    20  O   -0.613861
    21  C    0.820221
    22  O   -0.639126
    23  N   -0.806352
    24  C   -0.275266
    25  N   -0.843546
    26  C    0.744919
    27  C   -0.588533
    28  O   -0.591535
    29  H    0.185098
    30  H    0.198073
    31  H    0.161459
    32  H    0.389891
    33  H    0.200439
    34  H    0.143816
    35  H    0.211741
    36  H    0.163457
    37  H    0.171078
    38  H    0.167060
    39  H    0.196459
    40  H    0.171735
    41  H    0.182893
    42  H    0.170165
    43  H    0.172978
    44  H    0.180701
    45  H    0.163998
    46  H    0.153924
    47  H    0.197474
    48  H    0.174487
    49  H    0.183781
    50  H    0.184333
    51  H    0.147935
    52  H    0.227174
    53  H    0.390064
    54  H    0.211613
    55  H    0.209671
    56  H    0.176990
    57  H    0.395680
    58  H    0.164697
    59  H    0.197954
    60  H    0.186014
    61  H    0.382209
    62  H    0.218624
    63  H    0.176930
    64  H    0.200964
 Sum of Mulliken atomic charges =   0.00000
 Mulliken charges with hydrogens summed into heavy atoms:
              1
     1  C    0.266314
     2  N   -0.391988
     3  C    0.816825
     4  O   -0.624511
     5  C    0.102874
     6  C    0.082419
     7  C    0.002998
     8  C    0.048377
     9  C    0.001952
    10  C   -0.005391
    11  C    0.000082
    12  C   -0.012128
    13  C    0.040241
    14  C    0.028822
    15  C    0.091214
    16  C    0.049731
    17  N   -0.397414
    18  C    0.767103
    19  C    0.002486
    20  O   -0.613861
    21  C    0.820221
    22  O   -0.639126
    23  N   -0.410672
    24  C    0.273399
    25  N   -0.461337
    26  C    0.744919
    27  C    0.007985
    28  O   -0.591535
 Sum of Mulliken charges with hydrogens summed into heavy atoms =   0.00000
 Electronic spatial extent (au):  <R**2>=          25242.7981
 Charge=              0.0000 electrons
 Dipole moment (field-independent basis, Debye):
    X=              0.5930    Y=             -2.3035    Z=             -6.9897  Tot=              7.3833
 Quadrupole moment (field-independent basis, Debye-Ang):
   XX=           -219.9551   YY=           -162.4727   ZZ=           -163.9182
   XY=              8.8749   XZ=            -31.2017   YZ=             -6.6525
 Traceless Quadrupole moment (field-independent basis, Debye-Ang):
   XX=            -37.8398   YY=             19.6427   ZZ=             18.1971
   XY=              8.8749   XZ=            -31.2017   YZ=             -6.6525
 Octapole moment (field-independent basis, Debye-Ang**2):
  XXX=            134.5370  YYY=             29.8695  ZZZ=            -28.0507  XYY=             28.2572
  XXY=            -23.3016  XXZ=           -241.8101  XZZ=            -76.6373  YZZ=             -9.3392
  YYZ=            -12.9214  XYZ=             61.7100
 Hexadecapole moment (field-independent basis, Debye-Ang**3):
 XXXX=         -33833.1747 YYYY=          -2040.2929 ZZZZ=          -1672.1590 XXXY=            495.9180
 XXXZ=          -1552.6963 YYYX=            -34.1617 YYYZ=            -12.4403 ZZZX=           -168.3169
 ZZZY=            -38.9291 XXYY=          -4792.1003 XXZZ=          -4720.0574 YYZZ=           -607.5612
 XXYZ=           -156.9177 YYXZ=             34.6648 ZZXY=            -75.6961
 N-N= 2.618262111871D+03 E-N=-8.268253865996D+03  KE= 1.293987846415D+03
 1\1\GINC-MOSURA\SP\RHF\6-31G(d)\C20H36N4O4\MARIE\05-Dec-2019\0\\#SP HF
 /6-31G* Geom=(ModRedundant)\\paramfit run\\0,1\C,0,0.,0.,0.\N,0,1.4481
 87,0.,0.\C,0,2.1232,0.47592,1.072365\O,0,1.590179,0.696732,2.124447\C,
 0,3.650505,0.594143,0.921539\C,0,4.198902,1.549248,1.986845\C,0,4.3077
 51,-0.809116,1.023981\C,0,4.133566,-1.622781,2.319066\C,0,4.591365,-3.
 094814,2.305884\C,0,6.041115,-3.284355,1.925651\C,0,7.070954,-3.46147,
 2.737328\C,0,7.051915,-3.516931,4.246074\C,0,7.151308,-4.938067,4.8292
 18\C,0,8.454261,-5.648673,4.439003\C,0,8.764812,-7.015778,5.101745\C,0
 ,10.079874,-7.536325,4.499172\N,0,8.935519,-6.809145,6.533419\C,0,9.07
 587,-7.859401,7.393838\C,0,8.861658,-7.522263,8.851663\O,0,9.348806,-8
 .968877,7.02817\C,0,7.553587,-7.951883,4.88875\O,0,6.607896,-7.896952,
 5.62806\N,0,7.563858,-8.74353,3.794597\C,0,6.484338,-9.680959,3.562079
 \N,0,3.997412,1.070275,-0.425452\C,0,3.587019,2.267163,-0.934086\C,0,4
 .328148,2.727659,-2.172145\O,0,2.697134,2.905425,-0.447397\H,0,-0.4032
 59,1.006147,0.\H,0,-0.36496,-0.516002,0.875939\H,0,-0.345658,-0.522086
 ,-0.883346\H,0,1.904244,0.070913,-0.879357\H,0,3.932135,1.22176,2.9800
 82\H,0,5.28092,1.595925,1.9075\H,0,3.792711,2.540594,1.848395\H,0,5.37
 4584,-0.64325,0.891407\H,0,3.984642,-1.403324,0.174983\H,0,4.708812,-1
 .109552,3.084119\H,0,3.09909,-1.585419,2.644394\H,0,3.97052,-3.670623,
 1.631821\H,0,4.408819,-3.495651,3.296762\H,0,6.242415,-3.275928,0.8666
 32\H,0,8.041355,-3.585593,2.28271\H,0,6.14891,-3.056157,4.627828\H,0,7
 .880403,-2.919592,4.62474\H,0,7.06271,-4.859097,5.909166\H,0,6.299018,
 -5.51904,4.502259\H,0,9.299221,-4.999422,4.658202\H,0,8.454534,-5.8070
 17,3.366959\H,0,10.882451,-6.867743,4.788049\H,0,10.038974,-7.54535,3.
 414908\H,0,10.319512,-8.525582,4.859287\H,0,8.453171,-6.025327,6.90982
 7\H,0,9.341045,-8.272481,9.461927\H,0,7.795408,-7.53565,9.056741\H,0,9
 .247184,-6.540536,9.104573\H,0,8.434592,-8.936178,3.358684\H,0,6.61740
 5,-10.125589,2.584573\H,0,5.537963,-9.160968,3.586792\H,0,6.464027,-10
 .465708,4.311419\H,0,4.82812,0.684785,-0.816437\H,0,3.710173,3.434604,
 -2.706288\H,0,4.588171,1.902533,-2.825678\H,0,5.244771,3.226201,-1.873
 716\\Version=EM64L-G09RevA.02\State=1-A\HF=-1295.6234301\RMSD=5.972e-0
 9\Dipole=1.7897926,-0.0392313,-2.2875977\Quadrupole=-2.8463041,-23.086
 3083,25.9326124,23.2842641,1.154615,7.052622\PG=C01 [X(C20H36N4O4)]\\@


 I DO NOT DEFINE TIME, SPACE, PLACE, AND MOTION, AS BEING WELL KNOWN TO ALL.
                                            -- NEWTON (1642-1726), PRINCIPIA
 Job cpu time:  0 days  0 hours  5 minutes  2.1 seconds.
 File lengths (MBytes):  RWF=    132 Int=      0 D2E=      0 Chk=     10 Scr=      1
 Normal termination of Gaussian 09 at Thu Dec  5 17:58:29 2019.
