 Entering Gaussian System, Link 0=g09
 Input=CHI2_-130.gau
 Output=CHI2_-130.log
 Initial command:
 /home/marie/Utilities//g09/l1.exe /tmp/g09/Gau-3749.inp -scrdir=/tmp/g09/
 Entering Link 1 = /home/marie/Utilities//g09/l1.exe PID=      3751.
  
 Copyright (c) 1988,1990,1992,1993,1995,1998,2003,2009, Gaussian, Inc.
                  All Rights Reserved.
  
 This is part of the Gaussian(R) 09 program.  It is based on
 the Gaussian(R) 03 system (copyright 2003, Gaussian, Inc.),
 the Gaussian(R) 98 system (copyright 1998, Gaussian, Inc.),
 the Gaussian(R) 94 system (copyright 1995, Gaussian, Inc.),
 the Gaussian 92(TM) system (copyright 1992, Gaussian, Inc.),
 the Gaussian 90(TM) system (copyright 1990, Gaussian, Inc.),
 the Gaussian 88(TM) system (copyright 1988, Gaussian, Inc.),
 the Gaussian 86(TM) system (copyright 1986, Carnegie Mellon
 University), and the Gaussian 82(TM) system (copyright 1983,
 Carnegie Mellon University). Gaussian is a federally registered
 trademark of Gaussian, Inc.
  
 This software contains proprietary and confidential information,
 including trade secrets, belonging to Gaussian, Inc.
  
 This software is provided under written license and may be
 used, copied, transmitted, or stored only in accord with that
 written license.
  
 The following legend is applicable only to US Government
 contracts under FAR:
  
                    RESTRICTED RIGHTS LEGEND
  
 Use, reproduction and disclosure by the US Government is
 subject to restrictions as set forth in subparagraphs (a)
 and (c) of the Commercial Computer Software - Restricted
 Rights clause in FAR 52.227-19.
  
 Gaussian, Inc.
 340 Quinnipiac St., Bldg. 40, Wallingford CT 06492
  
  
 ---------------------------------------------------------------
 Warning -- This program may not be used in any manner that
 competes with the business of Gaussian, Inc. or will provide
 assistance to any competitor of Gaussian, Inc.  The licensee
 of this program is prohibited from giving any competitor of
 Gaussian, Inc. access to this program.  By using this program,
 the user acknowledges that Gaussian, Inc. is engaged in the
 business of creating and licensing software in the field of
 computational chemistry and represents and warrants to the
 licensee that it is not a competitor of Gaussian, Inc. and that
 it will not use this program in any manner prohibited above.
 ---------------------------------------------------------------
  

 Cite this work as:
 Gaussian 09, Revision A.02,
 M. J. Frisch, G. W. Trucks, H. B. Schlegel, G. E. Scuseria, 
 M. A. Robb, J. R. Cheeseman, G. Scalmani, V. Barone, B. Mennucci, 
 G. A. Petersson, H. Nakatsuji, M. Caricato, X. Li, H. P. Hratchian, 
 A. F. Izmaylov, J. Bloino, G. Zheng, J. L. Sonnenberg, M. Hada, 
 M. Ehara, K. Toyota, R. Fukuda, J. Hasegawa, M. Ishida, T. Nakajima, 
 Y. Honda, O. Kitao, H. Nakai, T. Vreven, J. A. Montgomery, Jr., 
 J. E. Peralta, F. Ogliaro, M. Bearpark, J. J. Heyd, E. Brothers, 
 K. N. Kudin, V. N. Staroverov, R. Kobayashi, J. Normand, 
 K. Raghavachari, A. Rendell, J. C. Burant, S. S. Iyengar, J. Tomasi, 
 M. Cossi, N. Rega, J. M. Millam, M. Klene, J. E. Knox, J. B. Cross, 
 V. Bakken, C. Adamo, J. Jaramillo, R. Gomperts, R. E. Stratmann, 
 O. Yazyev, A. J. Austin, R. Cammi, C. Pomelli, J. W. Ochterski, 
 R. L. Martin, K. Morokuma, V. G. Zakrzewski, G. A. Voth, 
 P. Salvador, J. J. Dannenberg, S. Dapprich, A. D. Daniels, 
 O. Farkas, J. B. Foresman, J. V. Ortiz, J. Cioslowski, 
 and D. J. Fox, Gaussian, Inc., Wallingford CT, 2009.
 
 ******************************************
 Gaussian 09:  EM64L-G09RevA.02 11-Jun-2009
                 5-Dec-2019 
 ******************************************
 %chk=CHI2_-130
 %NoSave
 ---------------------------------
 #SP HF/6-31G* Geom=(ModRedundant)
 ---------------------------------
 1/18=120,38=1/1;
 2/12=2,17=6,18=5,40=1/2;
 3/5=1,6=6,7=1,11=9,16=1,25=1,30=1/1,2,3;
 4//1;
 5/5=2,38=5/2;
 6/7=2,8=2,9=2,10=2,28=1/1;
 99/5=1,9=1/99;
 ------------
 paramfit run
 ------------
 Symbolic Z-matrix:
 Charge =  0 Multiplicity = 1
 C-CT--0.3208          0.        0.        0. 
 N-N--0.5622           1.44819   0.        0. 
 C-C-0.8053            2.1232    0.47592   1.07237 
 O-O--0.6151           1.59018   0.69673   2.12445 
 C-CX-0.0839           3.65051   0.59414   0.92154 
 C-CU--0.3230          4.1989    1.54925   1.98685 
 C-CU--0.0657          4.30775  -0.80912   1.02398 
 C-CU--0.0109          4.13357  -1.62278   2.31907 
 C-CU-0.0816           5.40056  -2.21555   2.96713 
 C-CM--0.2354          6.4593   -1.18988   3.2978 
 C-CM--0.2653          6.69438  -0.62298   4.47002 
 C-CU-0.1214           5.96103  -0.86052   5.7683 
 C-CU--0.0354          6.70961  -1.76674   6.76227 
 C-CU--0.0984          8.06312  -1.18449   7.19111 
 C-CU-0.1300           8.84065  -1.90588   8.32235 
 C-CU--0.3561          10.17482  -1.16647   8.51394 
 N-N--0.7186           8.05922  -1.82225   9.54868 
 C-C-0.8537            8.42928  -2.49464   10.6774 
 C-CT--0.3868          7.34853  -2.62274   11.72639 
 O-O--0.6323           9.52747  -2.95187   10.83252 
 C-C-0.7903            8.98897  -3.39694   7.94355 
 O-O--0.6136           8.09807  -4.17104   8.16937 
 N-N--0.5650           10.10022  -3.7595    7.26706 
 C-CT--0.3231          10.32603  -5.14907   6.92603 
 N-N--0.7191           3.99741   1.07028  -0.42545 
 C-C-0.8539            3.58702   2.26716  -0.93409 
 C-CT--0.3903          4.32815   2.72766  -2.17214 
 O-O--0.6290           2.69713   2.90543  -0.4474 
 H-H1-0.1459          -0.40326   1.00615   0. 
 H-H1-0.1459          -0.36496  -0.516     0.87594 
 H-H1-0.1459          -0.34566  -0.52209  -0.88335 
 H-H-0.3572            1.90424   0.07091  -0.87936 
 H-HC-0.0997           3.93214   1.22176   2.98008 
 H-HC-0.0997           5.28092   1.59593   1.9075 
 H-HC-0.0997           3.79271   2.54059   1.8484 
 H-HC-0.0347           5.37458  -0.64325   0.89141 
 H-HC-0.0347           3.98464  -1.40332   0.17498 
 H-HC-0.0243           3.67966  -0.95328   3.04388 
 H-HC-0.0243           3.41919  -2.42399   2.1606 
 H-HC-0.0171           5.82911  -2.97099   2.32136 
 H-HC-0.0171           5.08743  -2.73365   3.86678 
 H-HA-0.1313           7.09053  -0.90011   2.47336 
 H-HA-0.1359           7.50226   0.0902    4.5196 
 H-HC-0.0092           4.98889  -1.29816   5.57631 
 H-HC-0.0092           5.77186   0.10292   6.24011 
 H-HC-0.0318           6.06381  -1.91772   7.6228 
 H-HC-0.0318           6.84916  -2.74419   6.31961 
 H-HC-0.0435           7.92661  -0.15552   7.51688 
 H-HC-0.0435           8.71565  -1.15227   6.32653 
 H-HC-0.1066           9.96813  -0.16595   8.87563 
 H-HC-0.1066           10.70835  -1.06843   7.5742 
 H-HC-0.1066           10.80537  -1.66231   9.23664 
 H-H-0.3529            7.07709  -1.73352   9.42117 
 H-HC-0.1047           7.80706  -2.81492   12.68444 
 H-HC-0.1047           6.71429  -3.46555   11.46846 
 H-HC-0.1047           6.73002  -1.73376   11.78599 
 H-H-0.3615            10.89606  -3.16807   7.31368 
 H-H1-0.1469           11.19806  -5.21101   6.28835 
 H-H1-0.1469           9.47098  -5.53734   6.3924 
 H-H1-0.1469           10.48536  -5.75966   7.80895 
 H-H-0.3570            4.82812   0.68479  -0.81644 
 H-HC-0.1060           3.71017   3.4346   -2.70629 
 H-HC-0.1060           4.58817   1.90253  -2.82568 
 H-HC-0.1060           5.24477   3.2262   -1.87372 
 
 The following ModRedundant input section has been read:
 D    *    7    8    * F                                                       
 Stoichiometry    C20H36N4O4
 Framework group  C1[X(C20H36N4O4)]
 Deg. of freedom   186
 Full point group                 C1      NOp   1
 Largest Abelian subgroup         C1      NOp   1
 Largest concise Abelian subgroup C1      NOp   1
                         Standard orientation:                         
 ---------------------------------------------------------------------
 Center     Atomic      Atomic             Coordinates (Angstroms)
 Number     Number       Type             X           Y           Z
 ---------------------------------------------------------------------
      1          6    20001001       -6.937641    2.304714    1.575696
      2          7    20001014       -6.176395    1.121741    1.231713
      3          6    20001002       -5.144076    1.212875    0.361012
      4          8    20001024       -4.676708    2.264724    0.022002
      5          6    90000001       -4.498878   -0.114614   -0.075883
      6          6    90000002       -3.699984    0.103027   -1.365164
      7          6    90000002       -3.600848   -0.672137    1.061795
      8          6    90000002       -2.406682    0.167516    1.550247
      9          6    90000002       -1.034798   -0.528987    1.647478
     10          6    20001004       -0.565318   -1.145951    0.350860
     11          6    20001004        0.283127   -0.632973   -0.525355
     12          6    90000002        0.991866    0.697893   -0.446375
     13          6    90000002        2.467010    0.605679   -0.016245
     14          6    90000002        3.317455   -0.220817   -0.990187
     15          6    90000002        4.852819   -0.247419   -0.774328
     16          6    90000002        5.454827   -1.185406   -1.833203
     17          7    20001014        5.371931    1.099611   -0.968142
     18          6    20001002        6.674644    1.407185   -0.700944
     19          6    20001001        6.969159    2.884925   -0.581153
     20          8    20001024        7.527051    0.573267   -0.570090
     21          6    20001002        5.136937   -0.670442    0.684801
     22          8    20001024        5.105711    0.143104    1.568598
     23          7    20001014        5.314670   -1.987050    0.927563
     24          6    20001001        5.634859   -2.445939    2.263640
     25          7    20001014       -5.529145   -1.144264   -0.275382
     26          6    20001002       -6.545250   -1.033243   -1.178088
     27          6    20001001       -7.277928   -2.323273   -1.483249
     28          8    20001024       -6.847732    0.009190   -1.686003
     29          1    20001035       -7.488413    2.691087    0.725805
     30          1    20001035       -6.271432    3.076450    1.932505
     31          1    20001035       -7.633623    2.050432    2.365192
     32          1    20001029       -6.647514    0.248429    1.272443
     33          1    20001034       -2.954002    0.872559   -1.237635
     34          1    20001034       -3.208920   -0.823741   -1.646580
     35          1    20001034       -4.355474    0.411481   -2.166485
     36          1    20001034       -3.199483   -1.610308    0.685017
     37          1    20001034       -4.233858   -0.929205    1.905296
     38          1    20001034       -2.304479    0.992277    0.851002
     39          1    20001034       -2.636205    0.614733    2.511855
     40          1    20001034       -1.059641   -1.292533    2.414125
     41          1    20001034       -0.322118    0.213899    1.988127
     42          1    20001033       -0.975144   -2.118439    0.130805
     43          1    20001033        0.506378   -1.224065   -1.399729
     44          1    20001034        0.478229    1.357011    0.242977
     45          1    20001034        0.936595    1.177801   -1.422709
     46          1    20001034        2.850647    1.618648    0.067966
     47          1    20001034        2.523689    0.182243    0.977896
     48          1    20001034        3.153706    0.135952   -2.004798
     49          1    20001034        2.974182   -1.248335   -0.963388
     50          1    20001034        5.291829   -0.752300   -2.813219
     51          1    20001034        4.968126   -2.155132   -1.821556
     52          1    20001034        6.517824   -1.313700   -1.694214
     53          1    20001029        4.726176    1.833705   -0.786984
     54          1    20001034        8.023355    3.049450   -0.744445
     55          1    20001034        6.718073    3.207233    0.424928
     56          1    20001034        6.391258    3.474702   -1.284412
     57          1    20001029        5.570279   -2.576891    0.171216
     58          1    20001035        5.615933   -3.527838    2.271152
     59          1    20001035        4.899251   -2.075791    2.962567
     60          1    20001035        6.613966   -2.103824    2.583107
     61          1    20001029       -5.268119   -2.069109   -0.014467
     62          1    20001034       -8.258099   -2.085067   -1.869895
     63          1    20001034       -7.373955   -2.957549   -0.609165
     64          1    20001034       -6.730835   -2.872493   -2.242755
 ---------------------------------------------------------------------
 Rotational constants (GHZ):      0.3874546      0.0458735      0.0450491
 Standard basis: 6-31G(d) (6D, 7F)
 There are   492 symmetry adapted basis functions of A   symmetry.
 Integral buffers will be    131072 words long.
 Raffenetti 1 integral format.
 Two-electron integral symmetry is turned on.
   492 basis functions,   928 primitive gaussians,   492 cartesian basis functions
   108 alpha electrons      108 beta electrons
       nuclear repulsion energy      2654.0280191999 Hartrees.
 NAtoms=   64 NActive=   64 NUniq=   64 SFac= 7.50D-01 NAtFMM=   80 NAOKFM=F Big=T
 One-electron integrals computed using PRISM.
 NBasis=   492 RedAO= T  NBF=   492
 NBsUse=   492 1.00D-06 NBFU=   492
 Harris functional with IExCor=  205 diagonalized for initial guess.
 ExpMin= 1.61D-01 ExpMax= 5.48D+03 ExpMxC= 8.25D+02 IAcc=1 IRadAn=         1 AccDes= 0.00D+00
 HarFok:  IExCor=  205 AccDes= 0.00D+00 IRadAn=         1 IDoV= 1
 ScaDFX=  1.000000  1.000000  1.000000  1.000000
 FoFCou: FMM=F IPFlag=           0 FMFlag=      100000 FMFlg1=           1
         NFxFlg=           0 DoJE=T BraDBF=F KetDBF=T FulRan=T
         Omega=  0.000000  0.000000  1.000000  0.000000  0.000000 ICntrl=     500 IOpCl=  0
         NMat0=    1 NMatS0=    1 NMatT0=    0 NMatD0=    1 NMtDS0=    0 NMtDT0=    0
         I1Cent=           4 NGrid=           0.
 Petite list used in FoFCou.
 Initial guess orbital symmetries:
       Occupied  (A) (A) (A) (A) (A) (A) (A) (A) (A) (A) (A) (A)
                 (A) (A) (A) (A) (A) (A) (A) (A) (A) (A) (A) (A)
                 (A) (A) (A) (A) (A) (A) (A) (A) (A) (A) (A) (A)
                 (A) (A) (A) (A) (A) (A) (A) (A) (A) (A) (A) (A)
                 (A) (A) (A) (A) (A) (A) (A) (A) (A) (A) (A) (A)
                 (A) (A) (A) (A) (A) (A) (A) (A) (A) (A) (A) (A)
                 (A) (A) (A) (A) (A) (A) (A) (A) (A) (A) (A) (A)
                 (A) (A) (A) (A) (A) (A) (A) (A) (A) (A) (A) (A)
                 (A) (A) (A) (A) (A) (A) (A) (A) (A) (A) (A) (A)
       Virtual   (A) (A) (A) (A) (A) (A) (A) (A) (A) (A) (A) (A)
                 (A) (A) (A) (A) (A) (A) (A) (A) (A) (A) (A) (A)
                 (A) (A) (A) (A) (A) (A) (A) (A) (A) (A) (A) (A)
                 (A) (A) (A) (A) (A) (A) (A) (A) (A) (A) (A) (A)
                 (A) (A) (A) (A) (A) (A) (A) (A) (A) (A) (A) (A)
                 (A) (A) (A) (A) (A) (A) (A) (A) (A) (A) (A) (A)
                 (A) (A) (A) (A) (A) (A) (A) (A) (A) (A) (A) (A)
                 (A) (A) (A) (A) (A) (A) (A) (A) (A) (A) (A) (A)
                 (A) (A) (A) (A) (A) (A) (A) (A) (A) (A) (A) (A)
                 (A) (A) (A) (A) (A) (A) (A) (A) (A) (A) (A) (A)
                 (A) (A) (A) (A) (A) (A) (A) (A) (A) (A) (A) (A)
                 (A) (A) (A) (A) (A) (A) (A) (A) (A) (A) (A) (A)
                 (A) (A) (A) (A) (A) (A) (A) (A) (A) (A) (A) (A)
                 (A) (A) (A) (A) (A) (A) (A) (A) (A) (A) (A) (A)
                 (A) (A) (A) (A) (A) (A) (A) (A) (A) (A) (A) (A)
                 (A) (A) (A) (A) (A) (A) (A) (A) (A) (A) (A) (A)
                 (A) (A) (A) (A) (A) (A) (A) (A) (A) (A) (A) (A)
                 (A) (A) (A) (A) (A) (A) (A) (A) (A) (A) (A) (A)
                 (A) (A) (A) (A) (A) (A) (A) (A) (A) (A) (A) (A)
                 (A) (A) (A) (A) (A) (A) (A) (A) (A) (A) (A) (A)
                 (A) (A) (A) (A) (A) (A) (A) (A) (A) (A) (A) (A)
                 (A) (A) (A) (A) (A) (A) (A) (A) (A) (A) (A) (A)
                 (A) (A) (A) (A) (A) (A) (A) (A) (A) (A) (A) (A)
                 (A) (A) (A) (A) (A) (A) (A) (A) (A) (A) (A) (A)
                 (A) (A) (A) (A) (A) (A) (A) (A) (A) (A) (A) (A)
                 (A) (A) (A) (A) (A) (A) (A) (A) (A) (A) (A) (A)
                 (A) (A) (A) (A) (A) (A) (A) (A) (A) (A) (A) (A)
                 (A) (A) (A) (A) (A) (A) (A) (A) (A) (A) (A) (A)
                 (A) (A) (A) (A) (A) (A) (A) (A) (A) (A) (A) (A)
                 (A) (A) (A) (A) (A) (A) (A) (A) (A) (A) (A) (A)
                 (A) (A) (A) (A) (A) (A) (A) (A) (A) (A) (A) (A)
                 (A) (A) (A) (A) (A) (A) (A) (A) (A) (A) (A) (A)
 The electronic state of the initial guess is 1-A.
 Requested convergence on RMS density matrix=1.00D-08 within 128 cycles.
 Requested convergence on MAX density matrix=1.00D-06.
 Requested convergence on             energy=1.00D-06.
 No special actions if energy rises.
 Integral accuracy reduced to 1.0D-05 until final iterations.
 Initial convergence to 1.0D-05 achieved.  Increase integral accuracy.
 SCF Done:  E(RHF) =  -1295.61863978     A.U. after   14 cycles
             Convg  =    0.6255D-08             -V/T =  2.0012

 **********************************************************************

            Population analysis using the SCF density.

 **********************************************************************

 Orbital symmetries:
       Occupied  (A) (A) (A) (A) (A) (A) (A) (A) (A) (A) (A) (A)
                 (A) (A) (A) (A) (A) (A) (A) (A) (A) (A) (A) (A)
                 (A) (A) (A) (A) (A) (A) (A) (A) (A) (A) (A) (A)
                 (A) (A) (A) (A) (A) (A) (A) (A) (A) (A) (A) (A)
                 (A) (A) (A) (A) (A) (A) (A) (A) (A) (A) (A) (A)
                 (A) (A) (A) (A) (A) (A) (A) (A) (A) (A) (A) (A)
                 (A) (A) (A) (A) (A) (A) (A) (A) (A) (A) (A) (A)
                 (A) (A) (A) (A) (A) (A) (A) (A) (A) (A) (A) (A)
                 (A) (A) (A) (A) (A) (A) (A) (A) (A) (A) (A) (A)
       Virtual   (A) (A) (A) (A) (A) (A) (A) (A) (A) (A) (A) (A)
                 (A) (A) (A) (A) (A) (A) (A) (A) (A) (A) (A) (A)
                 (A) (A) (A) (A) (A) (A) (A) (A) (A) (A) (A) (A)
                 (A) (A) (A) (A) (A) (A) (A) (A) (A) (A) (A) (A)
                 (A) (A) (A) (A) (A) (A) (A) (A) (A) (A) (A) (A)
                 (A) (A) (A) (A) (A) (A) (A) (A) (A) (A) (A) (A)
                 (A) (A) (A) (A) (A) (A) (A) (A) (A) (A) (A) (A)
                 (A) (A) (A) (A) (A) (A) (A) (A) (A) (A) (A) (A)
                 (A) (A) (A) (A) (A) (A) (A) (A) (A) (A) (A) (A)
                 (A) (A) (A) (A) (A) (A) (A) (A) (A) (A) (A) (A)
                 (A) (A) (A) (A) (A) (A) (A) (A) (A) (A) (A) (A)
                 (A) (A) (A) (A) (A) (A) (A) (A) (A) (A) (A) (A)
                 (A) (A) (A) (A) (A) (A) (A) (A) (A) (A) (A) (A)
                 (A) (A) (A) (A) (A) (A) (A) (A) (A) (A) (A) (A)
                 (A) (A) (A) (A) (A) (A) (A) (A) (A) (A) (A) (A)
                 (A) (A) (A) (A) (A) (A) (A) (A) (A) (A) (A) (A)
                 (A) (A) (A) (A) (A) (A) (A) (A) (A) (A) (A) (A)
                 (A) (A) (A) (A) (A) (A) (A) (A) (A) (A) (A) (A)
                 (A) (A) (A) (A) (A) (A) (A) (A) (A) (A) (A) (A)
                 (A) (A) (A) (A) (A) (A) (A) (A) (A) (A) (A) (A)
                 (A) (A) (A) (A) (A) (A) (A) (A) (A) (A) (A) (A)
                 (A) (A) (A) (A) (A) (A) (A) (A) (A) (A) (A) (A)
                 (A) (A) (A) (A) (A) (A) (A) (A) (A) (A) (A) (A)
                 (A) (A) (A) (A) (A) (A) (A) (A) (A) (A) (A) (A)
                 (A) (A) (A) (A) (A) (A) (A) (A) (A) (A) (A) (A)
                 (A) (A) (A) (A) (A) (A) (A) (A) (A) (A) (A) (A)
                 (A) (A) (A) (A) (A) (A) (A) (A) (A) (A) (A) (A)
                 (A) (A) (A) (A) (A) (A) (A) (A) (A) (A) (A) (A)
                 (A) (A) (A) (A) (A) (A) (A) (A) (A) (A) (A) (A)
                 (A) (A) (A) (A) (A) (A) (A) (A) (A) (A) (A) (A)
                 (A) (A) (A) (A) (A) (A) (A) (A) (A) (A) (A) (A)
                 (A) (A) (A) (A) (A) (A) (A) (A) (A) (A) (A) (A)
 The electronic state is 1-A.
 Alpha  occ. eigenvalues --  -20.53499 -20.52103 -20.51779 -20.51512 -15.59462
 Alpha  occ. eigenvalues --  -15.58111 -15.57588 -15.57058 -11.35836 -11.34304
 Alpha  occ. eigenvalues --  -11.33856 -11.33487 -11.28907 -11.28689 -11.25260
 Alpha  occ. eigenvalues --  -11.24546 -11.24271 -11.23859 -11.23540 -11.22853
 Alpha  occ. eigenvalues --  -11.22802 -11.22698 -11.22649 -11.22530 -11.22518
 Alpha  occ. eigenvalues --  -11.22471 -11.21899 -11.20504  -1.40424  -1.39486
 Alpha  occ. eigenvalues --   -1.38298  -1.38216  -1.25247  -1.23630  -1.22821
 Alpha  occ. eigenvalues --   -1.21670  -1.11114  -1.09307  -1.07329  -1.04404
 Alpha  occ. eigenvalues --   -1.01313  -0.99342  -0.98791  -0.95319  -0.95135
 Alpha  occ. eigenvalues --   -0.94729  -0.92322  -0.87079  -0.85693  -0.83089
 Alpha  occ. eigenvalues --   -0.81553  -0.79614  -0.78825  -0.77027  -0.76788
 Alpha  occ. eigenvalues --   -0.72265  -0.71416  -0.70912  -0.69060  -0.68133
 Alpha  occ. eigenvalues --   -0.66864  -0.65713  -0.64586  -0.63935  -0.63615
 Alpha  occ. eigenvalues --   -0.62864  -0.62316  -0.61982  -0.61523  -0.61309
 Alpha  occ. eigenvalues --   -0.60876  -0.59538  -0.59431  -0.58897  -0.58738
 Alpha  occ. eigenvalues --   -0.57943  -0.57202  -0.57047  -0.56505  -0.56016
 Alpha  occ. eigenvalues --   -0.55341  -0.55143  -0.54880  -0.54302  -0.53891
 Alpha  occ. eigenvalues --   -0.53201  -0.52664  -0.52386  -0.51985  -0.51882
 Alpha  occ. eigenvalues --   -0.51090  -0.50378  -0.49895  -0.49113  -0.48859
 Alpha  occ. eigenvalues --   -0.48606  -0.46791  -0.46551  -0.45015  -0.42645
 Alpha  occ. eigenvalues --   -0.41859  -0.41640  -0.41128  -0.39022  -0.38983
 Alpha  occ. eigenvalues --   -0.38458  -0.37880  -0.35021
 Alpha virt. eigenvalues --    0.16685   0.18948   0.19544   0.20315   0.20795
 Alpha virt. eigenvalues --    0.21485   0.21848   0.22916   0.23518   0.23820
 Alpha virt. eigenvalues --    0.24819   0.25716   0.26523   0.26839   0.27210
 Alpha virt. eigenvalues --    0.27578   0.28337   0.28530   0.29216   0.29446
 Alpha virt. eigenvalues --    0.29514   0.30165   0.31169   0.31507   0.31899
 Alpha virt. eigenvalues --    0.32158   0.32431   0.32870   0.33134   0.33234
 Alpha virt. eigenvalues --    0.33457   0.33970   0.34378   0.34609   0.34793
 Alpha virt. eigenvalues --    0.35307   0.35769   0.36175   0.36649   0.37588
 Alpha virt. eigenvalues --    0.37863   0.38864   0.39124   0.39372   0.39849
 Alpha virt. eigenvalues --    0.40322   0.41553   0.42359   0.42751   0.43540
 Alpha virt. eigenvalues --    0.44300   0.45080   0.45654   0.46134   0.46981
 Alpha virt. eigenvalues --    0.48756   0.49252   0.50049   0.52049   0.52529
 Alpha virt. eigenvalues --    0.53477   0.55351   0.57653   0.58623   0.59689
 Alpha virt. eigenvalues --    0.62324   0.63436   0.64507   0.68996   0.69882
 Alpha virt. eigenvalues --    0.70201   0.71367   0.71575   0.72640   0.72882
 Alpha virt. eigenvalues --    0.73183   0.74415   0.75145   0.75896   0.76379
 Alpha virt. eigenvalues --    0.76479   0.77622   0.77737   0.78486   0.78733
 Alpha virt. eigenvalues --    0.79542   0.79889   0.80646   0.81637   0.82424
 Alpha virt. eigenvalues --    0.83596   0.83971   0.84258   0.85283   0.85960
 Alpha virt. eigenvalues --    0.87061   0.87838   0.88709   0.89541   0.90820
 Alpha virt. eigenvalues --    0.90960   0.92031   0.92370   0.93186   0.93477
 Alpha virt. eigenvalues --    0.94395   0.95571   0.96871   0.97163   0.97657
 Alpha virt. eigenvalues --    0.98580   0.99148   0.99971   1.00426   1.00954
 Alpha virt. eigenvalues --    1.01332   1.01772   1.02234   1.02667   1.02967
 Alpha virt. eigenvalues --    1.03514   1.04461   1.04663   1.06525   1.06848
 Alpha virt. eigenvalues --    1.07419   1.08072   1.09915   1.10122   1.10665
 Alpha virt. eigenvalues --    1.11659   1.12942   1.13064   1.13591   1.14096
 Alpha virt. eigenvalues --    1.14231   1.14524   1.14816   1.15115   1.15346
 Alpha virt. eigenvalues --    1.15721   1.16265   1.16595   1.16919   1.17189
 Alpha virt. eigenvalues --    1.17998   1.18442   1.18599   1.18706   1.18901
 Alpha virt. eigenvalues --    1.19373   1.19623   1.19937   1.20605   1.21161
 Alpha virt. eigenvalues --    1.21668   1.21831   1.22086   1.22339   1.22406
 Alpha virt. eigenvalues --    1.23131   1.23338   1.23815   1.24141   1.25611
 Alpha virt. eigenvalues --    1.26075   1.26825   1.27427   1.27790   1.28821
 Alpha virt. eigenvalues --    1.29152   1.29539   1.30143   1.31026   1.31362
 Alpha virt. eigenvalues --    1.32378   1.33961   1.34674   1.35729   1.38221
 Alpha virt. eigenvalues --    1.38320   1.38833   1.39775   1.41048   1.41916
 Alpha virt. eigenvalues --    1.42762   1.44178   1.45405   1.46872   1.48221
 Alpha virt. eigenvalues --    1.48757   1.51552   1.54056   1.54218   1.55512
 Alpha virt. eigenvalues --    1.56239   1.58188   1.59018   1.60981   1.61411
 Alpha virt. eigenvalues --    1.61617   1.63304   1.64872   1.66129   1.67487
 Alpha virt. eigenvalues --    1.69490   1.70945   1.71716   1.72821   1.73523
 Alpha virt. eigenvalues --    1.74104   1.74845   1.76702   1.78340   1.79593
 Alpha virt. eigenvalues --    1.80271   1.81678   1.83007   1.85086   1.88569
 Alpha virt. eigenvalues --    1.89282   1.89693   1.91266   1.92365   1.94516
 Alpha virt. eigenvalues --    1.95636   1.97073   1.98244   1.98342   2.00099
 Alpha virt. eigenvalues --    2.04473   2.05814   2.06745   2.06962   2.08142
 Alpha virt. eigenvalues --    2.08973   2.10372   2.11695   2.12024   2.12237
 Alpha virt. eigenvalues --    2.12658   2.13842   2.14440   2.15615   2.15877
 Alpha virt. eigenvalues --    2.16277   2.16956   2.18211   2.18821   2.19515
 Alpha virt. eigenvalues --    2.20116   2.20967   2.22022   2.22330   2.23246
 Alpha virt. eigenvalues --    2.24955   2.25440   2.25642   2.26333   2.26992
 Alpha virt. eigenvalues --    2.28038   2.28858   2.29337   2.30710   2.32324
 Alpha virt. eigenvalues --    2.32713   2.33595   2.33980   2.35088   2.35485
 Alpha virt. eigenvalues --    2.36549   2.36904   2.37501   2.38197   2.39008
 Alpha virt. eigenvalues --    2.39332   2.40707   2.41346   2.41989   2.43131
 Alpha virt. eigenvalues --    2.44694   2.45757   2.47435   2.48396   2.49658
 Alpha virt. eigenvalues --    2.51792   2.52903   2.54582   2.54937   2.56266
 Alpha virt. eigenvalues --    2.56913   2.57213   2.57993   2.59365   2.62107
 Alpha virt. eigenvalues --    2.62416   2.63081   2.64472   2.64778   2.65292
 Alpha virt. eigenvalues --    2.65831   2.67923   2.69212   2.70324   2.71547
 Alpha virt. eigenvalues --    2.72366   2.72604   2.73935   2.74555   2.75434
 Alpha virt. eigenvalues --    2.75928   2.77148   2.77704   2.78780   2.79411
 Alpha virt. eigenvalues --    2.80922   2.82224   2.84501   2.85160   2.86236
 Alpha virt. eigenvalues --    2.87865   2.88358   2.90687   2.92044   2.95648
 Alpha virt. eigenvalues --    2.97271   2.97651   2.98521   2.98780   3.00723
 Alpha virt. eigenvalues --    3.02572   3.04335   3.05459   3.06847   3.07943
 Alpha virt. eigenvalues --    3.10924   3.11751   3.13043   3.14189   3.15535
 Alpha virt. eigenvalues --    3.16878   3.18093   3.21249   3.29050   3.30475
 Alpha virt. eigenvalues --    3.34275   3.34688   3.38667   3.40058   3.40677
 Alpha virt. eigenvalues --    3.42568   3.42967   3.53403   3.55568   3.57488
 Alpha virt. eigenvalues --    3.60305   4.38269   4.40547   4.44485   4.46981
 Alpha virt. eigenvalues --    4.49074   4.51814   4.54120   4.57508   4.60544
 Alpha virt. eigenvalues --    4.62888   4.65965   4.67222   4.67977   4.69992
 Alpha virt. eigenvalues --    4.73190   4.75876   4.78323   4.83529   4.83944
 Alpha virt. eigenvalues --    4.87793   4.89077   4.93626   4.95258   4.96618
 Alpha virt. eigenvalues --    5.01991   5.11070   5.19916   5.23443
          Condensed to atoms (all electrons):
 Mulliken atomic charges:
              1
     1  C   -0.278293
     2  N   -0.782545
     3  C    0.817902
     4  O   -0.623994
     5  C    0.092087
     6  C   -0.466394
     7  C   -0.326773
     8  C   -0.325972
     9  C   -0.352020
    10  C   -0.175689
    11  C   -0.168157
    12  C   -0.358420
    13  C   -0.311854
    14  C   -0.329515
    15  C    0.091101
    16  C   -0.509779
    17  N   -0.787286
    18  C    0.767070
    19  C   -0.595810
    20  O   -0.614257
    21  C    0.820225
    22  O   -0.639450
    23  N   -0.806370
    24  C   -0.274980
    25  N   -0.842228
    26  C    0.744871
    27  C   -0.588602
    28  O   -0.591527
    29  H    0.184651
    30  H    0.198184
    31  H    0.161253
    32  H    0.389602
    33  H    0.199124
    34  H    0.145118
    35  H    0.208837
    36  H    0.158019
    37  H    0.180282
    38  H    0.197352
    39  H    0.175405
    40  H    0.166097
    41  H    0.181403
    42  H    0.167869
    43  H    0.174060
    44  H    0.182618
    45  H    0.167956
    46  H    0.154457
    47  H    0.195945
    48  H    0.175813
    49  H    0.183091
    50  H    0.184964
    51  H    0.147740
    52  H    0.226802
    53  H    0.390459
    54  H    0.211311
    55  H    0.209281
    56  H    0.177700
    57  H    0.395744
    58  H    0.164411
    59  H    0.197360
    60  H    0.185871
    61  H    0.381923
    62  H    0.218472
    63  H    0.177000
    64  H    0.200488
 Sum of Mulliken atomic charges =   0.00000
 Mulliken charges with hydrogens summed into heavy atoms:
              1
     1  C    0.265795
     2  N   -0.392942
     3  C    0.817902
     4  O   -0.623994
     5  C    0.092087
     6  C    0.086685
     7  C    0.011527
     8  C    0.046784
     9  C   -0.004520
    10  C   -0.007820
    11  C    0.005903
    12  C   -0.007846
    13  C    0.038548
    14  C    0.029389
    15  C    0.091101
    16  C    0.049727
    17  N   -0.396827
    18  C    0.767070
    19  C    0.002482
    20  O   -0.614257
    21  C    0.820225
    22  O   -0.639450
    23  N   -0.410626
    24  C    0.272662
    25  N   -0.460305
    26  C    0.744871
    27  C    0.007358
    28  O   -0.591527
 Sum of Mulliken charges with hydrogens summed into heavy atoms =   0.00000
 Electronic spatial extent (au):  <R**2>=          23432.2249
 Charge=              0.0000 electrons
 Dipole moment (field-independent basis, Debye):
    X=             -2.7114    Y=             -6.2650    Z=              0.6858  Tot=              6.8610
 Quadrupole moment (field-independent basis, Debye-Ang):
   XX=           -195.9494   YY=           -156.6070   ZZ=           -173.8549
   XY=             25.2710   XZ=            -23.4770   YZ=              1.5149
 Traceless Quadrupole moment (field-independent basis, Debye-Ang):
   XX=            -20.4790   YY=             18.8634   ZZ=              1.6156
   XY=             25.2710   XZ=            -23.4770   YZ=              1.5149
 Octapole moment (field-independent basis, Debye-Ang**2):
  XXX=           -394.2442  YYY=            -24.5581  ZZZ=              6.9159  XYY=             71.0827
  XXY=           -173.7160  XXZ=             98.2271  XZZ=              0.5478  YZZ=            -10.3618
  YYZ=              2.3778  XYZ=            -59.9844
 Hexadecapole moment (field-independent basis, Debye-Ang**3):
 XXXX=         -28689.1795 YYYY=          -2154.7252 ZZZZ=          -1692.2646 XXXY=            733.2272
 XXXZ=           -753.6441 YYYX=            120.7857 YYYZ=              0.4263 ZZZX=              4.4670
 ZZZY=            -10.3109 XXYY=          -4073.3652 XXZZ=          -4832.9587 YYZZ=           -615.5973
 XXYZ=            115.9642 YYXZ=             28.4552 ZZXY=            -33.3496
 N-N= 2.654028019200D+03 E-N=-8.340009177282D+03  KE= 1.294004947778D+03
 1\1\GINC-MOSURA\SP\RHF\6-31G(d)\C20H36N4O4\MARIE\05-Dec-2019\0\\#SP HF
 /6-31G* Geom=(ModRedundant)\\paramfit run\\0,1\C,0,0.,0.,0.\N,0,1.4481
 87,0.,0.\C,0,2.1232,0.47592,1.072365\O,0,1.590179,0.696732,2.124447\C,
 0,3.650505,0.594143,0.921539\C,0,4.198902,1.549248,1.986845\C,0,4.3077
 51,-0.809116,1.023981\C,0,4.133566,-1.622781,2.319066\C,0,5.400557,-2.
 215554,2.967132\C,0,6.459299,-1.189882,3.297795\C,0,6.694378,-0.62298,
 4.470023\C,0,5.961032,-0.860516,5.768304\C,0,6.709607,-1.766737,6.7622
 68\C,0,8.06312,-1.184493,7.191114\C,0,8.840649,-1.905884,8.322347\C,0,
 10.174817,-1.166467,8.513944\N,0,8.059217,-1.822253,9.548684\C,0,8.429
 281,-2.494637,10.677404\C,0,7.348526,-2.622735,11.726387\O,0,9.52747,-
 2.95187,10.832516\C,0,8.988968,-3.396937,7.943548\O,0,8.098071,-4.1710
 42,8.169369\N,0,10.100223,-3.759499,7.267056\C,0,10.326028,-5.149073,6
 .926031\N,0,3.997412,1.070275,-0.425452\C,0,3.587019,2.267163,-0.93408
 6\C,0,4.328148,2.727659,-2.172145\O,0,2.697134,2.905425,-0.447397\H,0,
 -0.403259,1.006147,0.\H,0,-0.36496,-0.516002,0.875939\H,0,-0.345658,-0
 .522086,-0.883346\H,0,1.904244,0.070913,-0.879357\H,0,3.932135,1.22176
 ,2.980082\H,0,5.28092,1.595925,1.9075\H,0,3.792711,2.540594,1.848395\H
 ,0,5.374584,-0.64325,0.891407\H,0,3.984642,-1.403324,0.174983\H,0,3.67
 966,-0.953281,3.043882\H,0,3.419193,-2.423988,2.160597\H,0,5.829113,-2
 .970988,2.321358\H,0,5.08743,-2.733648,3.866779\H,0,7.090532,-0.900112
 ,2.47336\H,0,7.50226,0.090202,4.519602\H,0,4.988887,-1.298164,5.576306
 \H,0,5.771864,0.102921,6.240108\H,0,6.063806,-1.917717,7.622803\H,0,6.
 849156,-2.744188,6.319612\H,0,7.92661,-0.155523,7.516875\H,0,8.715655,
 -1.152266,6.326529\H,0,9.968127,-0.165945,8.875627\H,0,10.708349,-1.06
 8432,7.574202\H,0,10.805371,-1.662307,9.236636\H,0,7.077088,-1.733517,
 9.421172\H,0,7.807061,-2.814919,12.684444\H,0,6.714289,-3.465553,11.46
 8461\H,0,6.730024,-1.733756,11.785987\H,0,10.896058,-3.168075,7.31368\
 H,0,11.198061,-5.211014,6.288346\H,0,9.470978,-5.537337,6.392395\H,0,1
 0.485357,-5.759662,7.808951\H,0,4.82812,0.684785,-0.816437\H,0,3.71017
 3,3.434604,-2.706288\H,0,4.588171,1.902533,-2.825678\H,0,5.244771,3.22
 6201,-1.873716\\Version=EM64L-G09RevA.02\State=1-A\HF=-1295.6186398\RM
 SD=6.255e-09\Dipole=1.3886192,-0.0339332,-2.314489\Quadrupole=-6.12048
 94,-12.5049627,18.6254522,16.1188056,-13.5175416,12.6884623\PG=C01 [X(
 C20H36N4O4)]\\@


 DEMOCRATS BUY MOST OF THE BOOKS THAT HAVE BEEN
 BANNED; REPUBLICANS FORM CENSORSHIP COMMITTEES AND
 READ THEM AS A GROUP.
 Job cpu time:  0 days  0 hours  5 minutes  0.3 seconds.
 File lengths (MBytes):  RWF=    132 Int=      0 D2E=      0 Chk=     10 Scr=      1
 Normal termination of Gaussian 09 at Thu Dec  5 16:24:40 2019.
