 Entering Gaussian System, Link 0=g09
 Input=CHI3_10.gau
 Output=CHI3_10.log
 Initial command:
 /home/marie/Utilities//g09/l1.exe /tmp/g09/Gau-8916.inp -scrdir=/tmp/g09/
 Entering Link 1 = /home/marie/Utilities//g09/l1.exe PID=      8918.
  
 Copyright (c) 1988,1990,1992,1993,1995,1998,2003,2009, Gaussian, Inc.
                  All Rights Reserved.
  
 This is part of the Gaussian(R) 09 program.  It is based on
 the Gaussian(R) 03 system (copyright 2003, Gaussian, Inc.),
 the Gaussian(R) 98 system (copyright 1998, Gaussian, Inc.),
 the Gaussian(R) 94 system (copyright 1995, Gaussian, Inc.),
 the Gaussian 92(TM) system (copyright 1992, Gaussian, Inc.),
 the Gaussian 90(TM) system (copyright 1990, Gaussian, Inc.),
 the Gaussian 88(TM) system (copyright 1988, Gaussian, Inc.),
 the Gaussian 86(TM) system (copyright 1986, Carnegie Mellon
 University), and the Gaussian 82(TM) system (copyright 1983,
 Carnegie Mellon University). Gaussian is a federally registered
 trademark of Gaussian, Inc.
  
 This software contains proprietary and confidential information,
 including trade secrets, belonging to Gaussian, Inc.
  
 This software is provided under written license and may be
 used, copied, transmitted, or stored only in accord with that
 written license.
  
 The following legend is applicable only to US Government
 contracts under FAR:
  
                    RESTRICTED RIGHTS LEGEND
  
 Use, reproduction and disclosure by the US Government is
 subject to restrictions as set forth in subparagraphs (a)
 and (c) of the Commercial Computer Software - Restricted
 Rights clause in FAR 52.227-19.
  
 Gaussian, Inc.
 340 Quinnipiac St., Bldg. 40, Wallingford CT 06492
  
  
 ---------------------------------------------------------------
 Warning -- This program may not be used in any manner that
 competes with the business of Gaussian, Inc. or will provide
 assistance to any competitor of Gaussian, Inc.  The licensee
 of this program is prohibited from giving any competitor of
 Gaussian, Inc. access to this program.  By using this program,
 the user acknowledges that Gaussian, Inc. is engaged in the
 business of creating and licensing software in the field of
 computational chemistry and represents and warrants to the
 licensee that it is not a competitor of Gaussian, Inc. and that
 it will not use this program in any manner prohibited above.
 ---------------------------------------------------------------
  

 Cite this work as:
 Gaussian 09, Revision A.02,
 M. J. Frisch, G. W. Trucks, H. B. Schlegel, G. E. Scuseria, 
 M. A. Robb, J. R. Cheeseman, G. Scalmani, V. Barone, B. Mennucci, 
 G. A. Petersson, H. Nakatsuji, M. Caricato, X. Li, H. P. Hratchian, 
 A. F. Izmaylov, J. Bloino, G. Zheng, J. L. Sonnenberg, M. Hada, 
 M. Ehara, K. Toyota, R. Fukuda, J. Hasegawa, M. Ishida, T. Nakajima, 
 Y. Honda, O. Kitao, H. Nakai, T. Vreven, J. A. Montgomery, Jr., 
 J. E. Peralta, F. Ogliaro, M. Bearpark, J. J. Heyd, E. Brothers, 
 K. N. Kudin, V. N. Staroverov, R. Kobayashi, J. Normand, 
 K. Raghavachari, A. Rendell, J. C. Burant, S. S. Iyengar, J. Tomasi, 
 M. Cossi, N. Rega, J. M. Millam, M. Klene, J. E. Knox, J. B. Cross, 
 V. Bakken, C. Adamo, J. Jaramillo, R. Gomperts, R. E. Stratmann, 
 O. Yazyev, A. J. Austin, R. Cammi, C. Pomelli, J. W. Ochterski, 
 R. L. Martin, K. Morokuma, V. G. Zakrzewski, G. A. Voth, 
 P. Salvador, J. J. Dannenberg, S. Dapprich, A. D. Daniels, 
 O. Farkas, J. B. Foresman, J. V. Ortiz, J. Cioslowski, 
 and D. J. Fox, Gaussian, Inc., Wallingford CT, 2009.
 
 ******************************************
 Gaussian 09:  EM64L-G09RevA.02 11-Jun-2009
                 5-Dec-2019 
 ******************************************
 %chk=CHI3_10
 %NoSave
 ---------------------------------
 #SP HF/6-31G* Geom=(ModRedundant)
 ---------------------------------
 1/18=120,38=1/1;
 2/12=2,17=6,18=5,40=1/2;
 3/5=1,6=6,7=1,11=9,16=1,25=1,30=1/1,2,3;
 4//1;
 5/5=2,38=5/2;
 6/7=2,8=2,9=2,10=2,28=1/1;
 99/5=1,9=1/99;
 ------------
 paramfit run
 ------------
 Symbolic Z-matrix:
 Charge =  0 Multiplicity = 1
 C-CT--0.3208          0.        0.        0. 
 N-N--0.5622           1.44819   0.        0. 
 C-C-0.8053            2.1232    0.47592   1.07237 
 O-O--0.6151           1.59018   0.69673   2.12445 
 C-CX-0.0839           3.65051   0.59414   0.92154 
 C-CU--0.3230          4.1989    1.54925   1.98685 
 C-CU--0.0657          4.30775  -0.80912   1.02398 
 C-CU--0.0109          4.13357  -1.62278   2.31907 
 C-CU-0.0816           2.83273  -2.4333    2.48497 
 C-CM--0.2354          1.99133  -2.50853   1.2325 
 C-CM--0.2653          1.94017  -3.49643   0.35376 
 C-CU-0.1214           2.7118   -4.79389   0.38501 
 C-CU--0.0354          1.89113  -6.008     0.85617 
 C-CU--0.0984          0.69105  -6.30114  -0.05421 
 C-CU-0.1300          -0.11672  -7.59993   0.2013 
 C-CU--0.3561         -1.28762  -7.62253  -0.79465 
 N-N--0.7186           0.75209  -8.74267  -0.0454 
 C-C-0.8537            0.35295  -10.01657   0.23907 
 C-CT--0.3868          1.46711  -11.03662   0.2934 
 O-O--0.6323          -0.79359  -10.31199   0.43221 
 C-C-0.7903           -0.54459  -7.62875   1.68617 
 O-O--0.6136           0.21424  -8.02843   2.52781 
 N-N--0.5650          -1.74647  -7.09737   1.9978 
 C-CT--0.3231         -2.23044  -7.13787   3.36247 
 N-N--0.7191           3.99741   1.07028  -0.42545 
 C-C-0.8539            3.58702   2.26716  -0.93409 
 C-CT--0.3903          4.32815   2.72766  -2.17214 
 O-O--0.6290           2.69713   2.90543  -0.4474 
 H-H1-0.1459          -0.40326   1.00615   0. 
 H-H1-0.1459          -0.36496  -0.516     0.87594 
 H-H1-0.1459          -0.34566  -0.52209  -0.88335 
 H-H-0.3572            1.90424   0.07091  -0.87936 
 H-HC-0.0997           3.93214   1.22176   2.98008 
 H-HC-0.0997           5.28092   1.59593   1.9075 
 H-HC-0.0997           3.79271   2.54059   1.8484 
 H-HC-0.0347           5.37458  -0.64325   0.89141 
 H-HC-0.0347           3.98464  -1.40332   0.17498 
 H-HC-0.0243           4.96157  -2.32476   2.35464 
 H-HC-0.0243           4.25012  -0.97572   3.18226 
 H-HC-0.0171           2.23661  -2.01838   3.28737 
 H-HC-0.0171           3.11521  -3.42962   2.8065 
 H-HA-0.1313           1.36245  -1.65213   1.0503 
 H-HA-0.1359           1.27193  -3.37645  -0.48458 
 H-HC-0.0092           3.5786   -4.70038   1.02795 
 H-HC-0.0092           3.09601  -4.99211  -0.61484 
 H-HC-0.0318           2.56065  -6.86252   0.90009 
 H-HC-0.0318           1.55534  -5.84041   1.87105 
 H-HC-0.0435           1.02443  -6.34253  -1.08894 
 H-HC-0.0435          -0.00571  -5.47399   0.01445 
 H-HC-0.1066          -0.88761  -7.70437  -1.79858 
 H-HC-0.1066          -1.86147  -6.70282  -0.74758 
 H-HC-0.1066          -1.94117  -8.4646   -0.62279 
 H-H-0.3529            1.72341  -8.57319   0.0831 
 H-HC-0.1047           1.05123  -12.02211   0.14882 
 H-HC-0.1047           1.92781  -10.99367   1.27577 
 H-HC-0.1047           2.23138  -10.84652  -0.45235 
 H-H-0.3615           -2.42394  -7.00617   1.27806 
 H-H1-0.1469          -3.14301  -6.5595    3.42271 
 H-H1-0.1469          -1.49436  -6.70458   4.02359 
 H-H1-0.1469          -2.42926  -8.15346   3.68928 
 H-H-0.3570            4.82812   0.68479  -0.81644 
 H-HC-0.1060           3.71017   3.4346   -2.70629 
 H-HC-0.1060           4.58817   1.90253  -2.82568 
 H-HC-0.1060           5.24477   3.2262   -1.87372 
 
 The following ModRedundant input section has been read:
 D    *    8    9    * F                                                       
 Stoichiometry    C20H36N4O4
 Framework group  C1[X(C20H36N4O4)]
 Deg. of freedom   186
 Full point group                 C1      NOp   1
 Largest Abelian subgroup         C1      NOp   1
 Largest concise Abelian subgroup C1      NOp   1
                         Standard orientation:                         
 ---------------------------------------------------------------------
 Center     Atomic      Atomic             Coordinates (Angstroms)
 Number     Number       Type             X           Y           Z
 ---------------------------------------------------------------------
      1          6    20001001        2.928650    2.058277   -1.789757
      2          7    20001014        3.402647    0.878900   -1.095753
      3          6    20001002        4.007525    1.001989    0.108856
      4          8    20001024        3.977673    2.018885    0.745076
      5          6    90000001        4.628020   -0.278316    0.696385
      6          6    90000002        5.643746    0.094888    1.781218
      7          6    90000002        3.513696   -1.204138    1.255616
      8          6    90000002        2.611105   -0.685656    2.389699
      9          6    90000002        1.411002    0.200219    2.000324
     10          6    20001004        1.140397    0.250532    0.514888
     11          6    20001004        0.245209   -0.446856   -0.165586
     12          6    90000002       -0.727599   -1.467353    0.374772
     13          6    90000002       -2.169587   -0.950250    0.525904
     14          6    90000002       -2.783750   -0.509281   -0.809485
     15          6    90000002       -4.288328   -0.134518   -0.830587
     16          6    90000002       -4.632655    0.325858   -2.256401
     17          7    20001014       -5.066627   -1.321243   -0.502768
     18          6    20001002       -6.415733   -1.257310   -0.305580
     19          6    20001001       -7.016235   -2.458400    0.388383
     20          8    20001024       -7.081260   -0.322070   -0.654209
     21          6    20001002       -4.545327    0.929601    0.260434
     22          8    20001024       -4.724739    0.596915    1.401074
     23          7    20001014       -4.456472    2.227317   -0.102911
     24          6    20001001       -4.735578    3.274794    0.857867
     25          7    20001014        5.271994   -1.068765   -0.362821
     26          6    20001002        6.297070   -0.607018   -1.134625
     27          6    20001001        7.048744   -1.670257   -1.908335
     28          8    20001024        6.578249    0.555616   -1.207844
     29          1    20001035        3.745441    2.702576   -2.094191
     30          1    20001035        2.269652    2.621005   -1.144945
     31          1    20001035        2.376608    1.744727   -2.666848
     32          1    20001029        3.671957    0.100574   -1.650700
     33          1    20001034        5.187560    0.694086    2.554386
     34          1    20001034        6.046708   -0.810358    2.225501
     35          1    20001034        6.453991    0.669356    1.356464
     36          1    20001034        4.027300   -2.085576    1.633105
     37          1    20001034        2.898949   -1.541931    0.427208
     38          1    20001034        2.218011   -1.562998    2.895037
     39          1    20001034        3.207228   -0.156128    3.125641
     40          1    20001034        1.558629    1.207581    2.367466
     41          1    20001034        0.544505   -0.185706    2.525756
     42          1    20001033        1.753153    0.942631   -0.039767
     43          1    20001033        0.190318   -0.274144   -1.229033
     44          1    20001034       -0.394587   -1.830106    1.339644
     45          1    20001034       -0.728306   -2.330473   -0.289770
     46          1    20001034       -2.758901   -1.742343    0.979417
     47          1    20001034       -2.182817   -0.128834    1.230127
     48          1    20001034       -2.651100   -1.298797   -1.546099
     49          1    20001034       -2.235972    0.351347   -1.175011
     50          1    20001034       -4.518205   -0.515586   -2.929791
     51          1    20001034       -3.956054    1.104918   -2.592047
     52          1    20001034       -5.651010    0.677594   -2.326900
     53          1    20001029       -4.596659   -1.996342    0.055877
     54          1    20001034       -8.072917   -2.499691    0.172095
     55          1    20001034       -6.884348   -2.340638    1.459767
     56          1    20001034       -6.541744   -3.385099    0.084297
     57          1    20001029       -4.548686    2.456391   -1.064332
     58          1    20001035       -4.492513    4.228962    0.409085
     59          1    20001035       -4.126055    3.134054    1.738377
     60          1    20001035       -5.778096    3.277357    1.159373
     61          1    20001029        5.204019   -2.057135   -0.262563
     62          1    20001034        7.545412   -1.205733   -2.747686
     63          1    20001034        6.395287   -2.460042   -2.261583
     64          1    20001034        7.800830   -2.114561   -1.264315
 ---------------------------------------------------------------------
 Rotational constants (GHZ):      0.3838160      0.0553490      0.0544508
 Standard basis: 6-31G(d) (6D, 7F)
 There are   492 symmetry adapted basis functions of A   symmetry.
 Integral buffers will be    131072 words long.
 Raffenetti 1 integral format.
 Two-electron integral symmetry is turned on.
   492 basis functions,   928 primitive gaussians,   492 cartesian basis functions
   108 alpha electrons      108 beta electrons
       nuclear repulsion energy      2749.5977960739 Hartrees.
 NAtoms=   64 NActive=   64 NUniq=   64 SFac= 7.50D-01 NAtFMM=   80 NAOKFM=F Big=T
 One-electron integrals computed using PRISM.
 NBasis=   492 RedAO= T  NBF=   492
 NBsUse=   492 1.00D-06 NBFU=   492
 Harris functional with IExCor=  205 diagonalized for initial guess.
 ExpMin= 1.61D-01 ExpMax= 5.48D+03 ExpMxC= 8.25D+02 IAcc=1 IRadAn=         1 AccDes= 0.00D+00
 HarFok:  IExCor=  205 AccDes= 0.00D+00 IRadAn=         1 IDoV= 1
 ScaDFX=  1.000000  1.000000  1.000000  1.000000
 FoFCou: FMM=F IPFlag=           0 FMFlag=      100000 FMFlg1=           1
         NFxFlg=           0 DoJE=T BraDBF=F KetDBF=T FulRan=T
         Omega=  0.000000  0.000000  1.000000  0.000000  0.000000 ICntrl=     500 IOpCl=  0
         NMat0=    1 NMatS0=    1 NMatT0=    0 NMatD0=    1 NMtDS0=    0 NMtDT0=    0
         I1Cent=           4 NGrid=           0.
 Petite list used in FoFCou.
 Initial guess orbital symmetries:
       Occupied  (A) (A) (A) (A) (A) (A) (A) (A) (A) (A) (A) (A)
                 (A) (A) (A) (A) (A) (A) (A) (A) (A) (A) (A) (A)
                 (A) (A) (A) (A) (A) (A) (A) (A) (A) (A) (A) (A)
                 (A) (A) (A) (A) (A) (A) (A) (A) (A) (A) (A) (A)
                 (A) (A) (A) (A) (A) (A) (A) (A) (A) (A) (A) (A)
                 (A) (A) (A) (A) (A) (A) (A) (A) (A) (A) (A) (A)
                 (A) (A) (A) (A) (A) (A) (A) (A) (A) (A) (A) (A)
                 (A) (A) (A) (A) (A) (A) (A) (A) (A) (A) (A) (A)
                 (A) (A) (A) (A) (A) (A) (A) (A) (A) (A) (A) (A)
       Virtual   (A) (A) (A) (A) (A) (A) (A) (A) (A) (A) (A) (A)
                 (A) (A) (A) (A) (A) (A) (A) (A) (A) (A) (A) (A)
                 (A) (A) (A) (A) (A) (A) (A) (A) (A) (A) (A) (A)
                 (A) (A) (A) (A) (A) (A) (A) (A) (A) (A) (A) (A)
                 (A) (A) (A) (A) (A) (A) (A) (A) (A) (A) (A) (A)
                 (A) (A) (A) (A) (A) (A) (A) (A) (A) (A) (A) (A)
                 (A) (A) (A) (A) (A) (A) (A) (A) (A) (A) (A) (A)
                 (A) (A) (A) (A) (A) (A) (A) (A) (A) (A) (A) (A)
                 (A) (A) (A) (A) (A) (A) (A) (A) (A) (A) (A) (A)
                 (A) (A) (A) (A) (A) (A) (A) (A) (A) (A) (A) (A)
                 (A) (A) (A) (A) (A) (A) (A) (A) (A) (A) (A) (A)
                 (A) (A) (A) (A) (A) (A) (A) (A) (A) (A) (A) (A)
                 (A) (A) (A) (A) (A) (A) (A) (A) (A) (A) (A) (A)
                 (A) (A) (A) (A) (A) (A) (A) (A) (A) (A) (A) (A)
                 (A) (A) (A) (A) (A) (A) (A) (A) (A) (A) (A) (A)
                 (A) (A) (A) (A) (A) (A) (A) (A) (A) (A) (A) (A)
                 (A) (A) (A) (A) (A) (A) (A) (A) (A) (A) (A) (A)
                 (A) (A) (A) (A) (A) (A) (A) (A) (A) (A) (A) (A)
                 (A) (A) (A) (A) (A) (A) (A) (A) (A) (A) (A) (A)
                 (A) (A) (A) (A) (A) (A) (A) (A) (A) (A) (A) (A)
                 (A) (A) (A) (A) (A) (A) (A) (A) (A) (A) (A) (A)
                 (A) (A) (A) (A) (A) (A) (A) (A) (A) (A) (A) (A)
                 (A) (A) (A) (A) (A) (A) (A) (A) (A) (A) (A) (A)
                 (A) (A) (A) (A) (A) (A) (A) (A) (A) (A) (A) (A)
                 (A) (A) (A) (A) (A) (A) (A) (A) (A) (A) (A) (A)
                 (A) (A) (A) (A) (A) (A) (A) (A) (A) (A) (A) (A)
                 (A) (A) (A) (A) (A) (A) (A) (A) (A) (A) (A) (A)
                 (A) (A) (A) (A) (A) (A) (A) (A) (A) (A) (A) (A)
                 (A) (A) (A) (A) (A) (A) (A) (A) (A) (A) (A) (A)
                 (A) (A) (A) (A) (A) (A) (A) (A) (A) (A) (A) (A)
                 (A) (A) (A) (A) (A) (A) (A) (A) (A) (A) (A) (A)
                 (A) (A) (A) (A) (A) (A) (A) (A) (A) (A) (A) (A)
 The electronic state of the initial guess is 1-A.
 Requested convergence on RMS density matrix=1.00D-08 within 128 cycles.
 Requested convergence on MAX density matrix=1.00D-06.
 Requested convergence on             energy=1.00D-06.
 No special actions if energy rises.
 Integral accuracy reduced to 1.0D-05 until final iterations.
 Initial convergence to 1.0D-05 achieved.  Increase integral accuracy.
 SCF Done:  E(RHF) =  -1295.59757333     A.U. after   14 cycles
             Convg  =    0.6777D-08             -V/T =  2.0011

 **********************************************************************

            Population analysis using the SCF density.

 **********************************************************************

 Orbital symmetries:
       Occupied  (A) (A) (A) (A) (A) (A) (A) (A) (A) (A) (A) (A)
                 (A) (A) (A) (A) (A) (A) (A) (A) (A) (A) (A) (A)
                 (A) (A) (A) (A) (A) (A) (A) (A) (A) (A) (A) (A)
                 (A) (A) (A) (A) (A) (A) (A) (A) (A) (A) (A) (A)
                 (A) (A) (A) (A) (A) (A) (A) (A) (A) (A) (A) (A)
                 (A) (A) (A) (A) (A) (A) (A) (A) (A) (A) (A) (A)
                 (A) (A) (A) (A) (A) (A) (A) (A) (A) (A) (A) (A)
                 (A) (A) (A) (A) (A) (A) (A) (A) (A) (A) (A) (A)
                 (A) (A) (A) (A) (A) (A) (A) (A) (A) (A) (A) (A)
       Virtual   (A) (A) (A) (A) (A) (A) (A) (A) (A) (A) (A) (A)
                 (A) (A) (A) (A) (A) (A) (A) (A) (A) (A) (A) (A)
                 (A) (A) (A) (A) (A) (A) (A) (A) (A) (A) (A) (A)
                 (A) (A) (A) (A) (A) (A) (A) (A) (A) (A) (A) (A)
                 (A) (A) (A) (A) (A) (A) (A) (A) (A) (A) (A) (A)
                 (A) (A) (A) (A) (A) (A) (A) (A) (A) (A) (A) (A)
                 (A) (A) (A) (A) (A) (A) (A) (A) (A) (A) (A) (A)
                 (A) (A) (A) (A) (A) (A) (A) (A) (A) (A) (A) (A)
                 (A) (A) (A) (A) (A) (A) (A) (A) (A) (A) (A) (A)
                 (A) (A) (A) (A) (A) (A) (A) (A) (A) (A) (A) (A)
                 (A) (A) (A) (A) (A) (A) (A) (A) (A) (A) (A) (A)
                 (A) (A) (A) (A) (A) (A) (A) (A) (A) (A) (A) (A)
                 (A) (A) (A) (A) (A) (A) (A) (A) (A) (A) (A) (A)
                 (A) (A) (A) (A) (A) (A) (A) (A) (A) (A) (A) (A)
                 (A) (A) (A) (A) (A) (A) (A) (A) (A) (A) (A) (A)
                 (A) (A) (A) (A) (A) (A) (A) (A) (A) (A) (A) (A)
                 (A) (A) (A) (A) (A) (A) (A) (A) (A) (A) (A) (A)
                 (A) (A) (A) (A) (A) (A) (A) (A) (A) (A) (A) (A)
                 (A) (A) (A) (A) (A) (A) (A) (A) (A) (A) (A) (A)
                 (A) (A) (A) (A) (A) (A) (A) (A) (A) (A) (A) (A)
                 (A) (A) (A) (A) (A) (A) (A) (A) (A) (A) (A) (A)
                 (A) (A) (A) (A) (A) (A) (A) (A) (A) (A) (A) (A)
                 (A) (A) (A) (A) (A) (A) (A) (A) (A) (A) (A) (A)
                 (A) (A) (A) (A) (A) (A) (A) (A) (A) (A) (A) (A)
                 (A) (A) (A) (A) (A) (A) (A) (A) (A) (A) (A) (A)
                 (A) (A) (A) (A) (A) (A) (A) (A) (A) (A) (A) (A)
                 (A) (A) (A) (A) (A) (A) (A) (A) (A) (A) (A) (A)
                 (A) (A) (A) (A) (A) (A) (A) (A) (A) (A) (A) (A)
                 (A) (A) (A) (A) (A) (A) (A) (A) (A) (A) (A) (A)
                 (A) (A) (A) (A) (A) (A) (A) (A) (A) (A) (A) (A)
                 (A) (A) (A) (A) (A) (A) (A) (A) (A) (A) (A) (A)
                 (A) (A) (A) (A) (A) (A) (A) (A) (A) (A) (A) (A)
 The electronic state is 1-A.
 Alpha  occ. eigenvalues --  -20.53680 -20.52355 -20.52064 -20.51586 -15.59638
 Alpha  occ. eigenvalues --  -15.57885 -15.57526 -15.57320 -11.35998 -11.34273
 Alpha  occ. eigenvalues --  -11.34041 -11.33670 -11.29080 -11.28545 -11.25266
 Alpha  occ. eigenvalues --  -11.24976 -11.24391 -11.23806 -11.23335 -11.22628
 Alpha  occ. eigenvalues --  -11.22555 -11.22380 -11.22243 -11.21799 -11.21583
 Alpha  occ. eigenvalues --  -11.21481 -11.20974 -11.20914  -1.40642  -1.39372
 Alpha  occ. eigenvalues --   -1.39118  -1.38094  -1.25501  -1.23549  -1.22599
 Alpha  occ. eigenvalues --   -1.22461  -1.10680  -1.09223  -1.07021  -1.04198
 Alpha  occ. eigenvalues --   -1.01048  -0.99326  -0.98729  -0.95851  -0.95073
 Alpha  occ. eigenvalues --   -0.94562  -0.92233  -0.87274  -0.85673  -0.82792
 Alpha  occ. eigenvalues --   -0.81386  -0.79495  -0.78646  -0.77542  -0.76868
 Alpha  occ. eigenvalues --   -0.71808  -0.71342  -0.71017  -0.69434  -0.68158
 Alpha  occ. eigenvalues --   -0.66869  -0.65843  -0.64711  -0.63942  -0.63718
 Alpha  occ. eigenvalues --   -0.62690  -0.62238  -0.61705  -0.61445  -0.61354
 Alpha  occ. eigenvalues --   -0.60964  -0.60407  -0.59262  -0.58822  -0.58663
 Alpha  occ. eigenvalues --   -0.58230  -0.57465  -0.56773  -0.56248  -0.56151
 Alpha  occ. eigenvalues --   -0.55601  -0.54958  -0.54878  -0.54742  -0.53574
 Alpha  occ. eigenvalues --   -0.53228  -0.52913  -0.52342  -0.51977  -0.51346
 Alpha  occ. eigenvalues --   -0.51137  -0.49923  -0.49653  -0.49384  -0.48655
 Alpha  occ. eigenvalues --   -0.48250  -0.46467  -0.46279  -0.44432  -0.42969
 Alpha  occ. eigenvalues --   -0.42093  -0.41502  -0.41076  -0.39449  -0.38837
 Alpha  occ. eigenvalues --   -0.38435  -0.38226  -0.33682
 Alpha virt. eigenvalues --    0.17397   0.18841   0.19620   0.19888   0.20407
 Alpha virt. eigenvalues --    0.21601   0.21983   0.22918   0.23212   0.23603
 Alpha virt. eigenvalues --    0.25578   0.25888   0.26229   0.27155   0.27409
 Alpha virt. eigenvalues --    0.28008   0.28437   0.28611   0.29214   0.29415
 Alpha virt. eigenvalues --    0.29994   0.30459   0.31125   0.31226   0.31998
 Alpha virt. eigenvalues --    0.32284   0.32451   0.32854   0.33348   0.33776
 Alpha virt. eigenvalues --    0.33934   0.34227   0.34540   0.34701   0.35008
 Alpha virt. eigenvalues --    0.35425   0.35706   0.36803   0.37439   0.37804
 Alpha virt. eigenvalues --    0.38221   0.38998   0.39484   0.40173   0.40490
 Alpha virt. eigenvalues --    0.41114   0.42306   0.43422   0.43701   0.43905
 Alpha virt. eigenvalues --    0.44586   0.45041   0.45792   0.46413   0.47290
 Alpha virt. eigenvalues --    0.48645   0.49403   0.49765   0.51867   0.52309
 Alpha virt. eigenvalues --    0.54843   0.55843   0.57836   0.59500   0.59922
 Alpha virt. eigenvalues --    0.63005   0.63421   0.65214   0.69353   0.70304
 Alpha virt. eigenvalues --    0.71028   0.71575   0.71999   0.72509   0.73030
 Alpha virt. eigenvalues --    0.73980   0.74732   0.75386   0.75933   0.76519
 Alpha virt. eigenvalues --    0.76918   0.77324   0.77702   0.78728   0.78897
 Alpha virt. eigenvalues --    0.79712   0.80711   0.81238   0.82121   0.83129
 Alpha virt. eigenvalues --    0.84119   0.84226   0.85636   0.86263   0.87437
 Alpha virt. eigenvalues --    0.87919   0.89048   0.89496   0.90504   0.91171
 Alpha virt. eigenvalues --    0.91463   0.91813   0.92469   0.93634   0.94396
 Alpha virt. eigenvalues --    0.94902   0.96292   0.96663   0.97169   0.97430
 Alpha virt. eigenvalues --    0.98177   0.99399   1.00180   1.00427   1.00735
 Alpha virt. eigenvalues --    1.02045   1.02505   1.03226   1.03285   1.03899
 Alpha virt. eigenvalues --    1.04268   1.04680   1.05067   1.07064   1.07543
 Alpha virt. eigenvalues --    1.07569   1.08378   1.10365   1.10841   1.11232
 Alpha virt. eigenvalues --    1.12620   1.13199   1.13512   1.13667   1.13899
 Alpha virt. eigenvalues --    1.14436   1.14653   1.14915   1.15247   1.15740
 Alpha virt. eigenvalues --    1.15800   1.16235   1.16974   1.17631   1.18204
 Alpha virt. eigenvalues --    1.18275   1.18497   1.18726   1.18992   1.19534
 Alpha virt. eigenvalues --    1.19932   1.20094   1.21133   1.21242   1.21656
 Alpha virt. eigenvalues --    1.21869   1.22200   1.22629   1.22970   1.23373
 Alpha virt. eigenvalues --    1.23911   1.24720   1.25690   1.26130   1.26521
 Alpha virt. eigenvalues --    1.27323   1.27601   1.28721   1.29563   1.29870
 Alpha virt. eigenvalues --    1.29995   1.31347   1.32110   1.32508   1.32875
 Alpha virt. eigenvalues --    1.34574   1.35857   1.36785   1.37728   1.38491
 Alpha virt. eigenvalues --    1.39132   1.39552   1.41579   1.42332   1.43428
 Alpha virt. eigenvalues --    1.45572   1.46612   1.48521   1.48710   1.50629
 Alpha virt. eigenvalues --    1.51842   1.53076   1.54438   1.54563   1.54959
 Alpha virt. eigenvalues --    1.57532   1.59278   1.60421   1.61086   1.61555
 Alpha virt. eigenvalues --    1.63076   1.63231   1.65621   1.66083   1.69407
 Alpha virt. eigenvalues --    1.71536   1.71664   1.72329   1.72935   1.74084
 Alpha virt. eigenvalues --    1.75378   1.76056   1.77586   1.79336   1.80487
 Alpha virt. eigenvalues --    1.80885   1.82719   1.83631   1.87036   1.88903
 Alpha virt. eigenvalues --    1.89509   1.90490   1.91831   1.93977   1.95191
 Alpha virt. eigenvalues --    1.96729   1.97612   1.98800   2.01995   2.03061
 Alpha virt. eigenvalues --    2.04945   2.06417   2.06981   2.07086   2.08693
 Alpha virt. eigenvalues --    2.09669   2.11065   2.11784   2.11927   2.12370
 Alpha virt. eigenvalues --    2.13610   2.14337   2.15240   2.15529   2.16347
 Alpha virt. eigenvalues --    2.16560   2.17844   2.19024   2.19298   2.20125
 Alpha virt. eigenvalues --    2.20687   2.21624   2.22102   2.23131   2.24180
 Alpha virt. eigenvalues --    2.25166   2.25464   2.26690   2.27562   2.27965
 Alpha virt. eigenvalues --    2.28939   2.29868   2.30306   2.31606   2.32478
 Alpha virt. eigenvalues --    2.32851   2.34096   2.34486   2.34827   2.36957
 Alpha virt. eigenvalues --    2.37145   2.37631   2.38660   2.39335   2.39359
 Alpha virt. eigenvalues --    2.40718   2.41665   2.42212   2.43933   2.45199
 Alpha virt. eigenvalues --    2.46230   2.47852   2.49006   2.49171   2.51057
 Alpha virt. eigenvalues --    2.51838   2.53957   2.55100   2.55557   2.56607
 Alpha virt. eigenvalues --    2.57057   2.58382   2.58976   2.60281   2.61384
 Alpha virt. eigenvalues --    2.62999   2.63322   2.63765   2.64745   2.65282
 Alpha virt. eigenvalues --    2.66420   2.67700   2.69543   2.70259   2.71165
 Alpha virt. eigenvalues --    2.71709   2.73461   2.73944   2.75303   2.75736
 Alpha virt. eigenvalues --    2.76834   2.77997   2.78272   2.79664   2.81296
 Alpha virt. eigenvalues --    2.82636   2.84029   2.84847   2.85863   2.86429
 Alpha virt. eigenvalues --    2.88277   2.89439   2.90376   2.93722   2.95885
 Alpha virt. eigenvalues --    2.96955   2.98144   2.98729   2.99534   3.03010
 Alpha virt. eigenvalues --    3.03368   3.04587   3.05598   3.06423   3.08678
 Alpha virt. eigenvalues --    3.11015   3.11563   3.13106   3.14756   3.15835
 Alpha virt. eigenvalues --    3.17298   3.19128   3.24181   3.29524   3.30638
 Alpha virt. eigenvalues --    3.34406   3.34721   3.38786   3.40570   3.42030
 Alpha virt. eigenvalues --    3.42707   3.42826   3.53169   3.55725   3.57591
 Alpha virt. eigenvalues --    3.60182   4.38451   4.42265   4.47337   4.49206
 Alpha virt. eigenvalues --    4.51325   4.51910   4.56133   4.57874   4.63065
 Alpha virt. eigenvalues --    4.64043   4.66826   4.67982   4.69862   4.70357
 Alpha virt. eigenvalues --    4.73352   4.77620   4.79882   4.84361   4.84755
 Alpha virt. eigenvalues --    4.88255   4.90169   4.93831   4.95107   5.02221
 Alpha virt. eigenvalues --    5.02809   5.13234   5.23625   5.24922
          Condensed to atoms (all electrons):
 Mulliken atomic charges:
              1
     1  C   -0.291950
     2  N   -0.793483
     3  C    0.805771
     4  O   -0.623336
     5  C    0.111797
     6  C   -0.471623
     7  C   -0.344990
     8  C   -0.316901
     9  C   -0.356838
    10  C   -0.173471
    11  C   -0.201436
    12  C   -0.347745
    13  C   -0.308565
    14  C   -0.328551
    15  C    0.090864
    16  C   -0.509586
    17  N   -0.787678
    18  C    0.767318
    19  C   -0.595611
    20  O   -0.613840
    21  C    0.820880
    22  O   -0.640042
    23  N   -0.805664
    24  C   -0.275362
    25  N   -0.843667
    26  C    0.744991
    27  C   -0.588667
    28  O   -0.592330
    29  H    0.196105
    30  H    0.195931
    31  H    0.167222
    32  H    0.395034
    33  H    0.197728
    34  H    0.144979
    35  H    0.212018
    36  H    0.161056
    37  H    0.192697
    38  H    0.165801
    39  H    0.182089
    40  H    0.197145
    41  H    0.171864
    42  H    0.230277
    43  H    0.160619
    44  H    0.170870
    45  H    0.154679
    46  H    0.148819
    47  H    0.198216
    48  H    0.171869
    49  H    0.185910
    50  H    0.183012
    51  H    0.148602
    52  H    0.226499
    53  H    0.389653
    54  H    0.211144
    55  H    0.209191
    56  H    0.175996
    57  H    0.395463
    58  H    0.165543
    59  H    0.198932
    60  H    0.184639
    61  H    0.382895
    62  H    0.218478
    63  H    0.177364
    64  H    0.201378
 Sum of Mulliken atomic charges =   0.00000
 Mulliken charges with hydrogens summed into heavy atoms:
              1
     1  C    0.267308
     2  N   -0.398449
     3  C    0.805771
     4  O   -0.623336
     5  C    0.111797
     6  C    0.083102
     7  C    0.008762
     8  C    0.030989
     9  C    0.012171
    10  C    0.056806
    11  C   -0.040817
    12  C   -0.022195
    13  C    0.038470
    14  C    0.029228
    15  C    0.090864
    16  C    0.048527
    17  N   -0.398025
    18  C    0.767318
    19  C    0.000719
    20  O   -0.613840
    21  C    0.820880
    22  O   -0.640042
    23  N   -0.410201
    24  C    0.273752
    25  N   -0.460773
    26  C    0.744991
    27  C    0.008552
    28  O   -0.592330
 Sum of Mulliken charges with hydrogens summed into heavy atoms =   0.00000
 Electronic spatial extent (au):  <R**2>=          19754.4947
 Charge=              0.0000 electrons
 Dipole moment (field-independent basis, Debye):
    X=              2.4609    Y=             -5.9509    Z=             -2.8370  Tot=              7.0369
 Quadrupole moment (field-independent basis, Debye-Ang):
   XX=           -207.3876   YY=           -158.3524   ZZ=           -168.2426
   XY=            -27.1907   XZ=              0.0117   YZ=             -4.8755
 Traceless Quadrupole moment (field-independent basis, Debye-Ang):
   XX=            -29.3934   YY=             19.6418   ZZ=              9.7516
   XY=            -27.1907   XZ=              0.0117   YZ=             -4.8755
 Octapole moment (field-independent basis, Debye-Ang**2):
  XXX=            216.2013  YYY=              6.8158  ZZZ=            -19.8068  XYY=            -80.5464
  XXY=           -224.7729  XXZ=             -5.7257  XZZ=             30.2773  YZZ=              3.8674
  YYZ=            -11.5018  XYZ=             25.9783
 Hexadecapole moment (field-independent basis, Debye-Ang**3):
 XXXX=         -24259.5723 YYYY=          -2074.2368 ZZZZ=          -1799.3106 XXXY=           -742.7622
 XXXZ=           -252.6104 YYYX=           -163.0655 YYYZ=            -20.3806 ZZZX=            -51.5728
 ZZZY=              3.9615 XXYY=          -3559.2918 XXZZ=          -3954.7225 YYZZ=           -645.7299
 XXYZ=             17.0511 YYXZ=            -79.6380 ZZXY=            -39.0574
 N-N= 2.749597796074D+03 E-N=-8.531337925925D+03  KE= 1.294151524602D+03
 1\1\GINC-MOSURA\SP\RHF\6-31G(d)\C20H36N4O4\MARIE\05-Dec-2019\0\\#SP HF
 /6-31G* Geom=(ModRedundant)\\paramfit run\\0,1\C,0,0.,0.,0.\N,0,1.4481
 87,0.,0.\C,0,2.1232,0.47592,1.072365\O,0,1.590179,0.696732,2.124447\C,
 0,3.650505,0.594143,0.921539\C,0,4.198902,1.549248,1.986845\C,0,4.3077
 51,-0.809116,1.023981\C,0,4.133566,-1.622781,2.319066\C,0,2.832729,-2.
 433298,2.484965\C,0,1.99133,-2.50853,1.232501\C,0,1.940173,-3.496435,0
 .353762\C,0,2.711795,-4.793886,0.385006\C,0,1.891134,-6.008005,0.85616
 9\C,0,0.69105,-6.301136,-0.054208\C,0,-0.116717,-7.599933,0.201302\C,0
 ,-1.287621,-7.622527,-0.794653\N,0,0.752088,-8.742668,-0.045404\C,0,0.
 352951,-10.016569,0.239067\C,0,1.467113,-11.036616,0.293403\O,0,-0.793
 592,-10.311994,0.432213\C,0,-0.544591,-7.628748,1.686165\O,0,0.214241,
 -8.028427,2.527806\N,0,-1.746468,-7.097373,1.997798\C,0,-2.23044,-7.13
 7867,3.362471\N,0,3.997412,1.070275,-0.425452\C,0,3.587019,2.267163,-0
 .934086\C,0,4.328148,2.727659,-2.172145\O,0,2.697134,2.905425,-0.44739
 7\H,0,-0.403259,1.006147,0.\H,0,-0.36496,-0.516002,0.875939\H,0,-0.345
 658,-0.522086,-0.883346\H,0,1.904244,0.070913,-0.879357\H,0,3.932135,1
 .22176,2.980082\H,0,5.28092,1.595925,1.9075\H,0,3.792711,2.540594,1.84
 8395\H,0,5.374584,-0.64325,0.891407\H,0,3.984642,-1.403324,0.174983\H,
 0,4.961565,-2.324757,2.354635\H,0,4.250121,-0.975721,3.182259\H,0,2.23
 6614,-2.018385,3.287373\H,0,3.115211,-3.429618,2.806499\H,0,1.362452,-
 1.652126,1.050298\H,0,1.271926,-3.376455,-0.484577\H,0,3.5786,-4.70037
 5,1.027945\H,0,3.09601,-4.992105,-0.614835\H,0,2.560648,-6.862521,0.90
 0085\H,0,1.555337,-5.840407,1.871049\H,0,1.024432,-6.342528,-1.088943\
 H,0,-0.005708,-5.473993,0.014448\H,0,-0.887609,-7.704372,-1.798581\H,0
 ,-1.861469,-6.702818,-0.74758\H,0,-1.941165,-8.464596,-0.622791\H,0,1.
 723414,-8.573186,0.083102\H,0,1.051234,-12.022112,0.148819\H,0,1.92780
 9,-10.993669,1.275768\H,0,2.231378,-10.846525,-0.452349\H,0,-2.423939,
 -7.006167,1.278059\H,0,-3.143007,-6.559495,3.422714\H,0,-1.494364,-6.7
 04584,4.023594\H,0,-2.429259,-8.153456,3.689282\H,0,4.82812,0.684785,-
 0.816437\H,0,3.710173,3.434604,-2.706288\H,0,4.588171,1.902533,-2.8256
 78\H,0,5.244771,3.226201,-1.873716\\Version=EM64L-G09RevA.02\State=1-A
 \HF=-1295.5975733\RMSD=6.777e-09\Dipole=1.6886825,0.3012773,-2.1730778
 \Quadrupole=22.6179969,-29.6246612,7.0066642,1.7165884,-4.8468063,-6.9
 222964\PG=C01 [X(C20H36N4O4)]\\@


 LENDING MONEY TO FRIENDS CAUSES THEM TO LOSE THEIR MEMORIES.

    --  PETER'S THEORY OF RECIPROCAL INHIBITION OF FISCAL RECALL
 Job cpu time:  0 days  0 hours  5 minutes 45.3 seconds.
 File lengths (MBytes):  RWF=    132 Int=      0 D2E=      0 Chk=     10 Scr=      1
 Normal termination of Gaussian 09 at Thu Dec  5 17:53:36 2019.
