 Entering Gaussian System, Link 0=g09
 Input=CHI3_140.gau
 Output=CHI3_140.log
 Initial command:
 /home/marie/Utilities//g09/l1.exe /tmp/g09/Gau-8276.inp -scrdir=/tmp/g09/
 Entering Link 1 = /home/marie/Utilities//g09/l1.exe PID=      8278.
  
 Copyright (c) 1988,1990,1992,1993,1995,1998,2003,2009, Gaussian, Inc.
                  All Rights Reserved.
  
 This is part of the Gaussian(R) 09 program.  It is based on
 the Gaussian(R) 03 system (copyright 2003, Gaussian, Inc.),
 the Gaussian(R) 98 system (copyright 1998, Gaussian, Inc.),
 the Gaussian(R) 94 system (copyright 1995, Gaussian, Inc.),
 the Gaussian 92(TM) system (copyright 1992, Gaussian, Inc.),
 the Gaussian 90(TM) system (copyright 1990, Gaussian, Inc.),
 the Gaussian 88(TM) system (copyright 1988, Gaussian, Inc.),
 the Gaussian 86(TM) system (copyright 1986, Carnegie Mellon
 University), and the Gaussian 82(TM) system (copyright 1983,
 Carnegie Mellon University). Gaussian is a federally registered
 trademark of Gaussian, Inc.
  
 This software contains proprietary and confidential information,
 including trade secrets, belonging to Gaussian, Inc.
  
 This software is provided under written license and may be
 used, copied, transmitted, or stored only in accord with that
 written license.
  
 The following legend is applicable only to US Government
 contracts under FAR:
  
                    RESTRICTED RIGHTS LEGEND
  
 Use, reproduction and disclosure by the US Government is
 subject to restrictions as set forth in subparagraphs (a)
 and (c) of the Commercial Computer Software - Restricted
 Rights clause in FAR 52.227-19.
  
 Gaussian, Inc.
 340 Quinnipiac St., Bldg. 40, Wallingford CT 06492
  
  
 ---------------------------------------------------------------
 Warning -- This program may not be used in any manner that
 competes with the business of Gaussian, Inc. or will provide
 assistance to any competitor of Gaussian, Inc.  The licensee
 of this program is prohibited from giving any competitor of
 Gaussian, Inc. access to this program.  By using this program,
 the user acknowledges that Gaussian, Inc. is engaged in the
 business of creating and licensing software in the field of
 computational chemistry and represents and warrants to the
 licensee that it is not a competitor of Gaussian, Inc. and that
 it will not use this program in any manner prohibited above.
 ---------------------------------------------------------------
  

 Cite this work as:
 Gaussian 09, Revision A.02,
 M. J. Frisch, G. W. Trucks, H. B. Schlegel, G. E. Scuseria, 
 M. A. Robb, J. R. Cheeseman, G. Scalmani, V. Barone, B. Mennucci, 
 G. A. Petersson, H. Nakatsuji, M. Caricato, X. Li, H. P. Hratchian, 
 A. F. Izmaylov, J. Bloino, G. Zheng, J. L. Sonnenberg, M. Hada, 
 M. Ehara, K. Toyota, R. Fukuda, J. Hasegawa, M. Ishida, T. Nakajima, 
 Y. Honda, O. Kitao, H. Nakai, T. Vreven, J. A. Montgomery, Jr., 
 J. E. Peralta, F. Ogliaro, M. Bearpark, J. J. Heyd, E. Brothers, 
 K. N. Kudin, V. N. Staroverov, R. Kobayashi, J. Normand, 
 K. Raghavachari, A. Rendell, J. C. Burant, S. S. Iyengar, J. Tomasi, 
 M. Cossi, N. Rega, J. M. Millam, M. Klene, J. E. Knox, J. B. Cross, 
 V. Bakken, C. Adamo, J. Jaramillo, R. Gomperts, R. E. Stratmann, 
 O. Yazyev, A. J. Austin, R. Cammi, C. Pomelli, J. W. Ochterski, 
 R. L. Martin, K. Morokuma, V. G. Zakrzewski, G. A. Voth, 
 P. Salvador, J. J. Dannenberg, S. Dapprich, A. D. Daniels, 
 O. Farkas, J. B. Foresman, J. V. Ortiz, J. Cioslowski, 
 and D. J. Fox, Gaussian, Inc., Wallingford CT, 2009.
 
 ******************************************
 Gaussian 09:  EM64L-G09RevA.02 11-Jun-2009
                 5-Dec-2019 
 ******************************************
 %chk=CHI3_140
 %NoSave
 ---------------------------------
 #SP HF/6-31G* Geom=(ModRedundant)
 ---------------------------------
 1/18=120,38=1/1;
 2/12=2,17=6,18=5,40=1/2;
 3/5=1,6=6,7=1,11=9,16=1,25=1,30=1/1,2,3;
 4//1;
 5/5=2,38=5/2;
 6/7=2,8=2,9=2,10=2,28=1/1;
 99/5=1,9=1/99;
 ------------
 paramfit run
 ------------
 Symbolic Z-matrix:
 Charge =  0 Multiplicity = 1
 C-CT--0.3208          0.        0.        0. 
 N-N--0.5622           1.44819   0.        0. 
 C-C-0.8053            2.1232    0.47592   1.07237 
 O-O--0.6151           1.59018   0.69673   2.12445 
 C-CX-0.0839           3.65051   0.59414   0.92154 
 C-CU--0.3230          4.1989    1.54925   1.98685 
 C-CU--0.0657          4.30775  -0.80912   1.02398 
 C-CU--0.0109          4.13357  -1.62278   2.31907 
 C-CU-0.0816           2.83273  -2.4333    2.48497 
 C-CM--0.2354          3.03204  -3.79484   3.10847 
 C-CM--0.2653          2.85155  -4.13626   4.37402 
 C-CU-0.1214           2.40224  -3.24818   5.50944 
 C-CU--0.0354          0.92505  -3.42406   5.90509 
 C-CU--0.0984          0.60573  -4.84613   6.38536 
 C-CU-0.1300          -0.80037  -5.11493   6.9814 
 C-CU--0.3561         -0.88222  -6.61174   7.32243 
 N-N--0.7186          -0.94507  -4.33103   8.20046 
 C-C-0.8537           -2.13577  -4.25701   8.86364 
 C-CT--0.3868         -2.23803  -3.13062   9.86643 
 O-O--0.6323          -3.03741  -5.02447   8.67084 
 C-C-0.7903           -1.86397  -4.6348    5.968 
 O-O--0.6136          -2.187    -3.478     5.93093 
 N-N--0.5650          -2.32576  -5.5376    5.07598 
 C-CT--0.3231         -3.36012  -5.1673    4.13196 
 N-N--0.7191           3.99741   1.07028  -0.42545 
 C-C-0.8539            3.58702   2.26716  -0.93409 
 C-CT--0.3903          4.32815   2.72766  -2.17214 
 O-O--0.6290           2.69713   2.90543  -0.4474 
 H-H1-0.1459          -0.40326   1.00615   0. 
 H-H1-0.1459          -0.36496  -0.516     0.87594 
 H-H1-0.1459          -0.34566  -0.52209  -0.88335 
 H-H-0.3572            1.90424   0.07091  -0.87936 
 H-HC-0.0997           3.93214   1.22176   2.98008 
 H-HC-0.0997           5.28092   1.59593   1.9075 
 H-HC-0.0997           3.79271   2.54059   1.8484 
 H-HC-0.0347           5.37458  -0.64325   0.89141 
 H-HC-0.0347           3.98464  -1.40332   0.17498 
 H-HC-0.0243           4.96157  -2.32476   2.35464 
 H-HC-0.0243           4.25012  -0.97572   3.18226 
 H-HC-0.0171           2.34396  -2.55109   1.52653 
 H-HC-0.0171           2.16012  -1.83819   3.09265 
 H-HA-0.1313           3.3548   -4.56744   2.42948 
 H-HA-0.1359           3.0397   -5.16498   4.63878 
 H-HC-0.0092           2.56454  -2.20682   5.25907 
 H-HC-0.0092           3.02839  -3.45245   6.37709 
 H-HC-0.0318           0.70125  -2.69538   6.67924 
 H-HC-0.0318           0.29632  -3.16641   5.06298 
 H-HC-0.0435           1.32572  -5.14054   7.14593 
 H-HC-0.0435           0.73536  -5.52945   5.55431 
 H-HC-0.1066          -0.17027  -6.82742   8.11059 
 H-HC-0.1066          -0.61609  -7.22476   6.46758 
 H-HC-0.1066          -1.86569  -6.8879    7.67207 
 H-H-0.3529           -0.39467  -3.50393   8.2413 
 H-HC-0.1047          -3.01434  -3.36205   10.57977 
 H-HC-0.1047          -2.50973  -2.2213    9.33874 
 H-HC-0.1047          -1.30089  -2.95922   10.38486 
 H-H-0.3615           -2.22651  -6.50273   5.2857 
 H-H1-0.1469          -3.50035  -5.98339   3.43536 
 H-H1-0.1469          -3.05712  -4.28603   3.58588 
 H-H1-0.1469          -4.30168  -4.95607   4.62855 
 H-H-0.3570            4.82812   0.68479  -0.81644 
 H-HC-0.1060           3.71017   3.4346   -2.70629 
 H-HC-0.1060           4.58817   1.90253  -2.82568 
 H-HC-0.1060           5.24477   3.2262   -1.87372 
 
 The following ModRedundant input section has been read:
 D    *    8    9    * F                                                       
 Stoichiometry    C20H36N4O4
 Framework group  C1[X(C20H36N4O4)]
 Deg. of freedom   186
 Full point group                 C1      NOp   1
 Largest Abelian subgroup         C1      NOp   1
 Largest concise Abelian subgroup C1      NOp   1
                         Standard orientation:                         
 ---------------------------------------------------------------------
 Center     Atomic      Atomic             Coordinates (Angstroms)
 Number     Number       Type             X           Y           Z
 ---------------------------------------------------------------------
      1          6    20001001        3.246189    2.861957   -0.721576
      2          7    20001014        3.921366    1.580848   -0.709617
      3          6    20001002        3.764563    0.744994    0.343411
      4          8    20001024        2.916304    0.908250    1.176208
      5          6    90000001        4.646139   -0.516805    0.351984
      6          6    90000002        4.702220   -1.093926    1.770303
      7          6    90000002        4.100100   -1.557025   -0.663589
      8          6    90000002        2.675640   -2.109084   -0.474432
      9          6    90000002        1.503455   -1.261341   -1.007305
     10          6    20001004        0.409181   -2.069493   -1.664366
     11          6    20001004       -0.734732   -2.463324   -1.128533
     12          6    90000002       -1.229334   -2.202997    0.274090
     13          6    90000002       -2.287879   -1.090080    0.376370
     14          6    90000002       -3.559279   -1.406638   -0.422533
     15          6    90000002       -4.774144   -0.455941   -0.264649
     16          6    90000002       -5.880824   -0.955471   -1.207613
     17          7    20001014       -5.242254   -0.526224    1.112836
     18          6    20001002       -6.211757    0.313173    1.580311
     19          6    20001001       -6.320618    0.385465    3.086209
     20          8    20001024       -6.927400    0.948493    0.856872
     21          6    20001002       -4.306184    0.990384   -0.543728
     22          8    20001024       -3.786600    1.637497    0.325299
     23          7    20001014       -4.411786    1.444912   -1.811100
     24          6    20001001       -4.039072    2.807616   -2.130980
     25          7    20001014        5.998669   -0.200635   -0.129813
     26          6    20001002        6.823848    0.703778    0.470844
     27          6    20001001        8.276619    0.627704    0.049195
     28          8    20001024        6.430315    1.509737    1.265641
     29          1    20001035        3.618938    3.521493    0.053678
     30          1    20001035        2.186651    2.717534   -0.569118
     31          1    20001035        3.400951    3.325238   -1.687896
     32          1    20001029        4.777662    1.511952   -1.207910
     33          1    20001034        3.712938   -1.310259    2.143739
     34          1    20001034        5.287208   -2.008803    1.765106
     35          1    20001034        5.160473   -0.386939    2.446393
     36          1    20001034        4.781006   -2.403639   -0.610392
     37          1    20001034        4.201581   -1.147631   -1.663778
     38          1    20001034        2.646001   -3.065486   -0.988276
     39          1    20001034        2.497562   -2.324904    0.573940
     40          1    20001034        1.868412   -0.523043   -1.709507
     41          1    20001034        1.104046   -0.703676   -0.167473
     42          1    20001033        0.595550   -2.345694   -2.689595
     43          1    20001033       -1.402250   -3.033670   -1.755340
     44          1    20001034       -0.401266   -1.943992    0.922694
     45          1    20001034       -1.647357   -3.127413    0.670708
     46          1    20001034       -2.517978   -0.948533    1.428698
     47          1    20001034       -1.858854   -0.156410    0.037210
     48          1    20001034       -3.910228   -2.403061   -0.162708
     49          1    20001034       -3.308720   -1.430956   -1.476563
     50          1    20001034       -6.210595   -1.930910   -0.869454
     51          1    20001034       -5.511090   -1.070909   -2.221196
     52          1    20001034       -6.733475   -0.293108   -1.207990
     53          1    20001029       -4.552735   -0.778750    1.783288
     54          1    20001034       -7.301621    0.748482    3.352498
     55          1    20001034       -5.577955    1.087422    3.453405
     56          1    20001034       -6.144361   -0.576629    3.554920
     57          1    20001029       -5.047503    0.991963   -2.424299
     58          1    20001035       -4.080702    2.934172   -3.204838
     59          1    20001035       -3.031482    2.999292   -1.792384
     60          1    20001035       -4.701504    3.527242   -1.660793
     61          1    20001029        6.439739   -0.912259   -0.668883
     62          1    20001034        8.749484    1.577387    0.252850
     63          1    20001034        8.386980    0.382128   -1.001074
     64          1    20001034        8.776791   -0.139422    0.631558
 ---------------------------------------------------------------------
 Rotational constants (GHZ):      0.3407611      0.0538341      0.0521175
 Standard basis: 6-31G(d) (6D, 7F)
 There are   492 symmetry adapted basis functions of A   symmetry.
 Integral buffers will be    131072 words long.
 Raffenetti 1 integral format.
 Two-electron integral symmetry is turned on.
   492 basis functions,   928 primitive gaussians,   492 cartesian basis functions
   108 alpha electrons      108 beta electrons
       nuclear repulsion energy      2695.6134326802 Hartrees.
 NAtoms=   64 NActive=   64 NUniq=   64 SFac= 7.50D-01 NAtFMM=   80 NAOKFM=F Big=T
 One-electron integrals computed using PRISM.
 NBasis=   492 RedAO= T  NBF=   492
 NBsUse=   492 1.00D-06 NBFU=   492
 Harris functional with IExCor=  205 diagonalized for initial guess.
 ExpMin= 1.61D-01 ExpMax= 5.48D+03 ExpMxC= 8.25D+02 IAcc=1 IRadAn=         1 AccDes= 0.00D+00
 HarFok:  IExCor=  205 AccDes= 0.00D+00 IRadAn=         1 IDoV= 1
 ScaDFX=  1.000000  1.000000  1.000000  1.000000
 FoFCou: FMM=F IPFlag=           0 FMFlag=      100000 FMFlg1=           1
         NFxFlg=           0 DoJE=T BraDBF=F KetDBF=T FulRan=T
         Omega=  0.000000  0.000000  1.000000  0.000000  0.000000 ICntrl=     500 IOpCl=  0
         NMat0=    1 NMatS0=    1 NMatT0=    0 NMatD0=    1 NMtDS0=    0 NMtDT0=    0
         I1Cent=           4 NGrid=           0.
 Petite list used in FoFCou.
 Initial guess orbital symmetries:
       Occupied  (A) (A) (A) (A) (A) (A) (A) (A) (A) (A) (A) (A)
                 (A) (A) (A) (A) (A) (A) (A) (A) (A) (A) (A) (A)
                 (A) (A) (A) (A) (A) (A) (A) (A) (A) (A) (A) (A)
                 (A) (A) (A) (A) (A) (A) (A) (A) (A) (A) (A) (A)
                 (A) (A) (A) (A) (A) (A) (A) (A) (A) (A) (A) (A)
                 (A) (A) (A) (A) (A) (A) (A) (A) (A) (A) (A) (A)
                 (A) (A) (A) (A) (A) (A) (A) (A) (A) (A) (A) (A)
                 (A) (A) (A) (A) (A) (A) (A) (A) (A) (A) (A) (A)
                 (A) (A) (A) (A) (A) (A) (A) (A) (A) (A) (A) (A)
       Virtual   (A) (A) (A) (A) (A) (A) (A) (A) (A) (A) (A) (A)
                 (A) (A) (A) (A) (A) (A) (A) (A) (A) (A) (A) (A)
                 (A) (A) (A) (A) (A) (A) (A) (A) (A) (A) (A) (A)
                 (A) (A) (A) (A) (A) (A) (A) (A) (A) (A) (A) (A)
                 (A) (A) (A) (A) (A) (A) (A) (A) (A) (A) (A) (A)
                 (A) (A) (A) (A) (A) (A) (A) (A) (A) (A) (A) (A)
                 (A) (A) (A) (A) (A) (A) (A) (A) (A) (A) (A) (A)
                 (A) (A) (A) (A) (A) (A) (A) (A) (A) (A) (A) (A)
                 (A) (A) (A) (A) (A) (A) (A) (A) (A) (A) (A) (A)
                 (A) (A) (A) (A) (A) (A) (A) (A) (A) (A) (A) (A)
                 (A) (A) (A) (A) (A) (A) (A) (A) (A) (A) (A) (A)
                 (A) (A) (A) (A) (A) (A) (A) (A) (A) (A) (A) (A)
                 (A) (A) (A) (A) (A) (A) (A) (A) (A) (A) (A) (A)
                 (A) (A) (A) (A) (A) (A) (A) (A) (A) (A) (A) (A)
                 (A) (A) (A) (A) (A) (A) (A) (A) (A) (A) (A) (A)
                 (A) (A) (A) (A) (A) (A) (A) (A) (A) (A) (A) (A)
                 (A) (A) (A) (A) (A) (A) (A) (A) (A) (A) (A) (A)
                 (A) (A) (A) (A) (A) (A) (A) (A) (A) (A) (A) (A)
                 (A) (A) (A) (A) (A) (A) (A) (A) (A) (A) (A) (A)
                 (A) (A) (A) (A) (A) (A) (A) (A) (A) (A) (A) (A)
                 (A) (A) (A) (A) (A) (A) (A) (A) (A) (A) (A) (A)
                 (A) (A) (A) (A) (A) (A) (A) (A) (A) (A) (A) (A)
                 (A) (A) (A) (A) (A) (A) (A) (A) (A) (A) (A) (A)
                 (A) (A) (A) (A) (A) (A) (A) (A) (A) (A) (A) (A)
                 (A) (A) (A) (A) (A) (A) (A) (A) (A) (A) (A) (A)
                 (A) (A) (A) (A) (A) (A) (A) (A) (A) (A) (A) (A)
                 (A) (A) (A) (A) (A) (A) (A) (A) (A) (A) (A) (A)
                 (A) (A) (A) (A) (A) (A) (A) (A) (A) (A) (A) (A)
                 (A) (A) (A) (A) (A) (A) (A) (A) (A) (A) (A) (A)
                 (A) (A) (A) (A) (A) (A) (A) (A) (A) (A) (A) (A)
                 (A) (A) (A) (A) (A) (A) (A) (A) (A) (A) (A) (A)
                 (A) (A) (A) (A) (A) (A) (A) (A) (A) (A) (A) (A)
 The electronic state of the initial guess is 1-A.
 Requested convergence on RMS density matrix=1.00D-08 within 128 cycles.
 Requested convergence on MAX density matrix=1.00D-06.
 Requested convergence on             energy=1.00D-06.
 No special actions if energy rises.
 Integral accuracy reduced to 1.0D-05 until final iterations.
 Initial convergence to 1.0D-05 achieved.  Increase integral accuracy.
 SCF Done:  E(RHF) =  -1295.61914219     A.U. after   14 cycles
             Convg  =    0.6336D-08             -V/T =  2.0012

 **********************************************************************

            Population analysis using the SCF density.

 **********************************************************************

 Orbital symmetries:
       Occupied  (A) (A) (A) (A) (A) (A) (A) (A) (A) (A) (A) (A)
                 (A) (A) (A) (A) (A) (A) (A) (A) (A) (A) (A) (A)
                 (A) (A) (A) (A) (A) (A) (A) (A) (A) (A) (A) (A)
                 (A) (A) (A) (A) (A) (A) (A) (A) (A) (A) (A) (A)
                 (A) (A) (A) (A) (A) (A) (A) (A) (A) (A) (A) (A)
                 (A) (A) (A) (A) (A) (A) (A) (A) (A) (A) (A) (A)
                 (A) (A) (A) (A) (A) (A) (A) (A) (A) (A) (A) (A)
                 (A) (A) (A) (A) (A) (A) (A) (A) (A) (A) (A) (A)
                 (A) (A) (A) (A) (A) (A) (A) (A) (A) (A) (A) (A)
       Virtual   (A) (A) (A) (A) (A) (A) (A) (A) (A) (A) (A) (A)
                 (A) (A) (A) (A) (A) (A) (A) (A) (A) (A) (A) (A)
                 (A) (A) (A) (A) (A) (A) (A) (A) (A) (A) (A) (A)
                 (A) (A) (A) (A) (A) (A) (A) (A) (A) (A) (A) (A)
                 (A) (A) (A) (A) (A) (A) (A) (A) (A) (A) (A) (A)
                 (A) (A) (A) (A) (A) (A) (A) (A) (A) (A) (A) (A)
                 (A) (A) (A) (A) (A) (A) (A) (A) (A) (A) (A) (A)
                 (A) (A) (A) (A) (A) (A) (A) (A) (A) (A) (A) (A)
                 (A) (A) (A) (A) (A) (A) (A) (A) (A) (A) (A) (A)
                 (A) (A) (A) (A) (A) (A) (A) (A) (A) (A) (A) (A)
                 (A) (A) (A) (A) (A) (A) (A) (A) (A) (A) (A) (A)
                 (A) (A) (A) (A) (A) (A) (A) (A) (A) (A) (A) (A)
                 (A) (A) (A) (A) (A) (A) (A) (A) (A) (A) (A) (A)
                 (A) (A) (A) (A) (A) (A) (A) (A) (A) (A) (A) (A)
                 (A) (A) (A) (A) (A) (A) (A) (A) (A) (A) (A) (A)
                 (A) (A) (A) (A) (A) (A) (A) (A) (A) (A) (A) (A)
                 (A) (A) (A) (A) (A) (A) (A) (A) (A) (A) (A) (A)
                 (A) (A) (A) (A) (A) (A) (A) (A) (A) (A) (A) (A)
                 (A) (A) (A) (A) (A) (A) (A) (A) (A) (A) (A) (A)
                 (A) (A) (A) (A) (A) (A) (A) (A) (A) (A) (A) (A)
                 (A) (A) (A) (A) (A) (A) (A) (A) (A) (A) (A) (A)
                 (A) (A) (A) (A) (A) (A) (A) (A) (A) (A) (A) (A)
                 (A) (A) (A) (A) (A) (A) (A) (A) (A) (A) (A) (A)
                 (A) (A) (A) (A) (A) (A) (A) (A) (A) (A) (A) (A)
                 (A) (A) (A) (A) (A) (A) (A) (A) (A) (A) (A) (A)
                 (A) (A) (A) (A) (A) (A) (A) (A) (A) (A) (A) (A)
                 (A) (A) (A) (A) (A) (A) (A) (A) (A) (A) (A) (A)
                 (A) (A) (A) (A) (A) (A) (A) (A) (A) (A) (A) (A)
                 (A) (A) (A) (A) (A) (A) (A) (A) (A) (A) (A) (A)
                 (A) (A) (A) (A) (A) (A) (A) (A) (A) (A) (A) (A)
                 (A) (A) (A) (A) (A) (A) (A) (A) (A) (A) (A) (A)
                 (A) (A) (A) (A) (A) (A) (A) (A) (A) (A) (A) (A)
 The electronic state is 1-A.
 Alpha  occ. eigenvalues --  -20.53551 -20.51751 -20.51624 -20.51292 -15.59529
 Alpha  occ. eigenvalues --  -15.57669 -15.57201 -15.57189 -11.35878 -11.33952
 Alpha  occ. eigenvalues --  -11.33617 -11.33386 -11.28944 -11.28259 -11.24839
 Alpha  occ. eigenvalues --  -11.24535 -11.24284 -11.24109 -11.23042 -11.22545
 Alpha  occ. eigenvalues --  -11.22193 -11.22136 -11.22095 -11.21938 -11.21883
 Alpha  occ. eigenvalues --  -11.21539 -11.21486 -11.20824  -1.40479  -1.39068
 Alpha  occ. eigenvalues --   -1.38433  -1.37793  -1.25330  -1.23232  -1.22377
 Alpha  occ. eigenvalues --   -1.21779  -1.10490  -1.09070  -1.07045  -1.04014
 Alpha  occ. eigenvalues --   -1.01165  -0.99178  -0.98474  -0.95233  -0.95018
 Alpha  occ. eigenvalues --   -0.94401  -0.91771  -0.87075  -0.85404  -0.82494
 Alpha  occ. eigenvalues --   -0.81094  -0.79201  -0.78732  -0.76896  -0.76604
 Alpha  occ. eigenvalues --   -0.72121  -0.71134  -0.70840  -0.69153  -0.67749
 Alpha  occ. eigenvalues --   -0.66453  -0.65519  -0.64237  -0.63872  -0.63194
 Alpha  occ. eigenvalues --   -0.62559  -0.62141  -0.61560  -0.61141  -0.60847
 Alpha  occ. eigenvalues --   -0.60561  -0.59710  -0.59056  -0.58517  -0.58362
 Alpha  occ. eigenvalues --   -0.57942  -0.57219  -0.56817  -0.55995  -0.55802
 Alpha  occ. eigenvalues --   -0.54944  -0.54865  -0.54524  -0.54174  -0.53888
 Alpha  occ. eigenvalues --   -0.52761  -0.52698  -0.52386  -0.51978  -0.51578
 Alpha  occ. eigenvalues --   -0.50938  -0.49868  -0.49504  -0.48536  -0.48532
 Alpha  occ. eigenvalues --   -0.47775  -0.47257  -0.46009  -0.44516  -0.42779
 Alpha  occ. eigenvalues --   -0.41793  -0.41196  -0.40765  -0.39120  -0.38558
 Alpha  occ. eigenvalues --   -0.38015  -0.37988  -0.34339
 Alpha virt. eigenvalues --    0.17777   0.18900   0.19960   0.20191   0.20404
 Alpha virt. eigenvalues --    0.21904   0.22248   0.23578   0.23874   0.24644
 Alpha virt. eigenvalues --    0.24986   0.25360   0.26657   0.27171   0.27766
 Alpha virt. eigenvalues --    0.28114   0.28396   0.28812   0.29300   0.29526
 Alpha virt. eigenvalues --    0.30287   0.30511   0.30798   0.31429   0.31737
 Alpha virt. eigenvalues --    0.31992   0.32369   0.32634   0.33100   0.33993
 Alpha virt. eigenvalues --    0.34048   0.34421   0.34634   0.34813   0.35169
 Alpha virt. eigenvalues --    0.35693   0.35822   0.36056   0.36463   0.37998
 Alpha virt. eigenvalues --    0.38287   0.38523   0.39461   0.40267   0.40289
 Alpha virt. eigenvalues --    0.41567   0.42096   0.42816   0.43433   0.43893
 Alpha virt. eigenvalues --    0.44784   0.44963   0.45577   0.45899   0.47276
 Alpha virt. eigenvalues --    0.47918   0.49122   0.49495   0.51928   0.52506
 Alpha virt. eigenvalues --    0.54544   0.56638   0.58043   0.58852   0.59885
 Alpha virt. eigenvalues --    0.62268   0.63522   0.64673   0.69511   0.70195
 Alpha virt. eigenvalues --    0.71005   0.71592   0.71808   0.72352   0.73417
 Alpha virt. eigenvalues --    0.73936   0.74262   0.75831   0.76009   0.76705
 Alpha virt. eigenvalues --    0.76933   0.77643   0.78191   0.78672   0.78916
 Alpha virt. eigenvalues --    0.80094   0.80336   0.81143   0.82097   0.82409
 Alpha virt. eigenvalues --    0.83470   0.83955   0.84617   0.85137   0.86109
 Alpha virt. eigenvalues --    0.87019   0.88453   0.90085   0.90497   0.90832
 Alpha virt. eigenvalues --    0.91621   0.92064   0.92521   0.92847   0.94151
 Alpha virt. eigenvalues --    0.94526   0.95642   0.96421   0.97158   0.97732
 Alpha virt. eigenvalues --    0.98036   0.98902   0.99890   1.00465   1.01002
 Alpha virt. eigenvalues --    1.01410   1.01896   1.02521   1.03123   1.03128
 Alpha virt. eigenvalues --    1.04105   1.04415   1.04773   1.06477   1.07254
 Alpha virt. eigenvalues --    1.07840   1.08412   1.09772   1.10653   1.11304
 Alpha virt. eigenvalues --    1.12453   1.13175   1.13509   1.13907   1.14457
 Alpha virt. eigenvalues --    1.14591   1.14683   1.15265   1.15575   1.15760
 Alpha virt. eigenvalues --    1.16124   1.16465   1.17413   1.17763   1.18196
 Alpha virt. eigenvalues --    1.18372   1.18546   1.18753   1.18962   1.19283
 Alpha virt. eigenvalues --    1.19831   1.20220   1.20491   1.20627   1.21255
 Alpha virt. eigenvalues --    1.21731   1.22049   1.22156   1.22673   1.22719
 Alpha virt. eigenvalues --    1.23400   1.23676   1.23827   1.25108   1.25659
 Alpha virt. eigenvalues --    1.26493   1.27186   1.27326   1.27962   1.29276
 Alpha virt. eigenvalues --    1.30006   1.30209   1.31458   1.32254   1.33118
 Alpha virt. eigenvalues --    1.33447   1.34519   1.36100   1.36938   1.38158
 Alpha virt. eigenvalues --    1.38705   1.39131   1.40893   1.41965   1.42272
 Alpha virt. eigenvalues --    1.44430   1.45574   1.46290   1.47935   1.48946
 Alpha virt. eigenvalues --    1.49565   1.51859   1.52501   1.54623   1.56195
 Alpha virt. eigenvalues --    1.56391   1.58189   1.59648   1.60494   1.61510
 Alpha virt. eigenvalues --    1.61924   1.63222   1.64833   1.65312   1.67669
 Alpha virt. eigenvalues --    1.69715   1.71692   1.72081   1.73312   1.73464
 Alpha virt. eigenvalues --    1.73973   1.75238   1.78163   1.78623   1.80025
 Alpha virt. eigenvalues --    1.80833   1.81992   1.82995   1.83602   1.87860
 Alpha virt. eigenvalues --    1.89703   1.90936   1.91908   1.94663   1.95279
 Alpha virt. eigenvalues --    1.96097   1.97019   1.98723   2.00855   2.02819
 Alpha virt. eigenvalues --    2.04941   2.05275   2.05998   2.07413   2.07848
 Alpha virt. eigenvalues --    2.09847   2.10609   2.11402   2.11898   2.12358
 Alpha virt. eigenvalues --    2.12607   2.14239   2.14547   2.15399   2.16053
 Alpha virt. eigenvalues --    2.16662   2.16905   2.18610   2.18846   2.19725
 Alpha virt. eigenvalues --    2.20351   2.21326   2.21939   2.22946   2.23227
 Alpha virt. eigenvalues --    2.24968   2.25892   2.26243   2.27520   2.27919
 Alpha virt. eigenvalues --    2.28291   2.29497   2.29861   2.31206   2.31578
 Alpha virt. eigenvalues --    2.33122   2.34275   2.34383   2.34621   2.36318
 Alpha virt. eigenvalues --    2.37132   2.37335   2.37916   2.38388   2.39280
 Alpha virt. eigenvalues --    2.39815   2.40731   2.41414   2.42501   2.43689
 Alpha virt. eigenvalues --    2.45454   2.45729   2.47680   2.49313   2.50849
 Alpha virt. eigenvalues --    2.51349   2.53599   2.53783   2.55103   2.56495
 Alpha virt. eigenvalues --    2.56841   2.57366   2.58022   2.58474   2.60801
 Alpha virt. eigenvalues --    2.62478   2.63404   2.64246   2.64810   2.65156
 Alpha virt. eigenvalues --    2.65790   2.68891   2.70301   2.70824   2.71427
 Alpha virt. eigenvalues --    2.72967   2.73443   2.74174   2.75167   2.76294
 Alpha virt. eigenvalues --    2.77356   2.78017   2.78769   2.79284   2.80419
 Alpha virt. eigenvalues --    2.81597   2.83350   2.84170   2.86267   2.86706
 Alpha virt. eigenvalues --    2.88251   2.88706   2.90618   2.93719   2.96115
 Alpha virt. eigenvalues --    2.97224   2.98414   2.98612   3.00618   3.01470
 Alpha virt. eigenvalues --    3.03486   3.04459   3.05763   3.06366   3.08238
 Alpha virt. eigenvalues --    3.11275   3.11529   3.13414   3.15008   3.15997
 Alpha virt. eigenvalues --    3.16949   3.18898   3.22295   3.29640   3.30905
 Alpha virt. eigenvalues --    3.34696   3.34801   3.38941   3.40883   3.42229
 Alpha virt. eigenvalues --    3.43025   3.44108   3.53463   3.56012   3.57892
 Alpha virt. eigenvalues --    3.60408   4.38695   4.40944   4.44371   4.47072
 Alpha virt. eigenvalues --    4.49471   4.52193   4.55349   4.58090   4.61525
 Alpha virt. eigenvalues --    4.63575   4.66128   4.67540   4.68559   4.70404
 Alpha virt. eigenvalues --    4.71834   4.77158   4.78943   4.82689   4.84033
 Alpha virt. eigenvalues --    4.87971   4.89648   4.94131   4.94545   4.99509
 Alpha virt. eigenvalues --    5.02201   5.11173   5.21196   5.23878
          Condensed to atoms (all electrons):
 Mulliken atomic charges:
              1
     1  C   -0.279734
     2  N   -0.783724
     3  C    0.823662
     4  O   -0.627277
     5  C    0.100543
     6  C   -0.472286
     7  C   -0.329355
     8  C   -0.315228
     9  C   -0.374495
    10  C   -0.173891
    11  C   -0.173650
    12  C   -0.356046
    13  C   -0.310926
    14  C   -0.329300
    15  C    0.091437
    16  C   -0.509454
    17  N   -0.787767
    18  C    0.767245
    19  C   -0.595699
    20  O   -0.614821
    21  C    0.820063
    22  O   -0.637215
    23  N   -0.806354
    24  C   -0.274907
    25  N   -0.842993
    26  C    0.744681
    27  C   -0.588686
    28  O   -0.591107
    29  H    0.185983
    30  H    0.201017
    31  H    0.161188
    32  H    0.390029
    33  H    0.197087
    34  H    0.143758
    35  H    0.213139
    36  H    0.160768
    37  H    0.176436
    38  H    0.169022
    39  H    0.181194
    40  H    0.176462
    41  H    0.208657
    42  H    0.169431
    43  H    0.170978
    44  H    0.184255
    45  H    0.160350
    46  H    0.153876
    47  H    0.201338
    48  H    0.172977
    49  H    0.183274
    50  H    0.183528
    51  H    0.147662
    52  H    0.225961
    53  H    0.390705
    54  H    0.210217
    55  H    0.210734
    56  H    0.176492
    57  H    0.394913
    58  H    0.163173
    59  H    0.198998
    60  H    0.185035
    61  H    0.381902
    62  H    0.218799
    63  H    0.176992
    64  H    0.200955
 Sum of Mulliken atomic charges =   0.00000
 Mulliken charges with hydrogens summed into heavy atoms:
              1
     1  C    0.268454
     2  N   -0.393695
     3  C    0.823662
     4  O   -0.627277
     5  C    0.100543
     6  C    0.081697
     7  C    0.007849
     8  C    0.034989
     9  C    0.010624
    10  C   -0.004460
    11  C   -0.002672
    12  C   -0.011441
    13  C    0.044287
    14  C    0.026950
    15  C    0.091437
    16  C    0.047697
    17  N   -0.397061
    18  C    0.767245
    19  C    0.001744
    20  O   -0.614821
    21  C    0.820063
    22  O   -0.637215
    23  N   -0.411441
    24  C    0.272300
    25  N   -0.461091
    26  C    0.744681
    27  C    0.008060
    28  O   -0.591107
 Sum of Mulliken charges with hydrogens summed into heavy atoms =   0.00000
 Electronic spatial extent (au):  <R**2>=          20620.8306
 Charge=              0.0000 electrons
 Dipole moment (field-independent basis, Debye):
    X=              4.8122    Y=             -4.9166    Z=             -5.3310  Tot=              8.7034
 Quadrupole moment (field-independent basis, Debye-Ang):
   XX=           -154.8456   YY=           -172.3458   ZZ=           -162.0296
   XY=             -0.5973   XZ=            -15.6309   YZ=            -13.3932
 Traceless Quadrupole moment (field-independent basis, Debye-Ang):
   XX=              8.2281   YY=             -9.2721   ZZ=              1.0441
   XY=             -0.5973   XZ=            -15.6309   YZ=            -13.3932
 Octapole moment (field-independent basis, Debye-Ang**2):
  XXX=            504.1172  YYY=             45.2790  ZZZ=              6.3890  XYY=              7.4853
  XXY=           -148.1685  XXZ=           -129.2156  XZZ=            -89.3699  YZZ=             10.0125
  YYZ=            -24.9413  XYZ=             -8.1384
 Hexadecapole moment (field-independent basis, Debye-Ang**3):
 XXXX=         -21985.5244 YYYY=          -2611.2176 ZZZZ=          -1712.9531 XXXY=             12.8082
 XXXZ=           -478.7897 YYYX=              7.8462 YYYZ=            -61.7221 ZZZX=            -91.7585
 ZZZY=            -26.3527 XXYY=          -4326.8591 XXZZ=          -3768.9346 YYZZ=           -715.8815
 XXYZ=           -303.8689 YYXZ=            -10.2824 ZZXY=            -94.6573
 N-N= 2.695613432680D+03 E-N=-8.423738628146D+03  KE= 1.294012001553D+03
 1\1\GINC-MOSURA\SP\RHF\6-31G(d)\C20H36N4O4\MARIE\05-Dec-2019\0\\#SP HF
 /6-31G* Geom=(ModRedundant)\\paramfit run\\0,1\C,0,0.,0.,0.\N,0,1.4481
 87,0.,0.\C,0,2.1232,0.47592,1.072365\O,0,1.590179,0.696732,2.124447\C,
 0,3.650505,0.594143,0.921539\C,0,4.198902,1.549248,1.986845\C,0,4.3077
 51,-0.809116,1.023981\C,0,4.133566,-1.622781,2.319066\C,0,2.832729,-2.
 433298,2.484965\C,0,3.032043,-3.794839,3.108469\C,0,2.851545,-4.136259
 ,4.374016\C,0,2.402241,-3.248181,5.509444\C,0,0.925049,-3.42406,5.9050
 9\C,0,0.605733,-4.846134,6.385358\C,0,-0.800374,-5.114927,6.981396\C,0
 ,-0.882221,-6.611741,7.322426\N,0,-0.945067,-4.331035,8.200456\C,0,-2.
 135765,-4.257006,8.863641\C,0,-2.238034,-3.130615,9.866432\O,0,-3.0374
 11,-5.024473,8.670845\C,0,-1.863966,-4.634803,5.967996\O,0,-2.187003,-
 3.477996,5.93093\N,0,-2.325755,-5.537596,5.075978\C,0,-3.360117,-5.167
 295,4.131958\N,0,3.997412,1.070275,-0.425452\C,0,3.587019,2.267163,-0.
 934086\C,0,4.328148,2.727659,-2.172145\O,0,2.697134,2.905425,-0.447397
 \H,0,-0.403259,1.006147,0.\H,0,-0.36496,-0.516002,0.875939\H,0,-0.3456
 58,-0.522086,-0.883346\H,0,1.904244,0.070913,-0.879357\H,0,3.932135,1.
 22176,2.980082\H,0,5.28092,1.595925,1.9075\H,0,3.792711,2.540594,1.848
 395\H,0,5.374584,-0.64325,0.891407\H,0,3.984642,-1.403324,0.174983\H,0
 ,4.961565,-2.324757,2.354635\H,0,4.250121,-0.975721,3.182259\H,0,2.343
 961,-2.551088,1.526531\H,0,2.160125,-1.838186,3.092649\H,0,3.354801,-4
 .567443,2.429481\H,0,3.039702,-5.164975,4.638784\H,0,2.564537,-2.20681
 7,5.259068\H,0,3.02839,-3.452449,6.377088\H,0,0.701246,-2.695382,6.679
 244\H,0,0.296318,-3.166413,5.062982\H,0,1.325724,-5.140544,7.14593\H,0
 ,0.735358,-5.529446,5.554315\H,0,-0.170273,-6.827416,8.110586\H,0,-0.6
 16093,-7.224757,6.467576\H,0,-1.865694,-6.887903,7.672073\H,0,-0.39466
 9,-3.503928,8.2413\H,0,-3.014336,-3.362047,10.579772\H,0,-2.509728,-2.
 221304,9.338738\H,0,-1.300892,-2.959224,10.384864\H,0,-2.226513,-6.502
 727,5.285702\H,0,-3.500349,-5.983391,3.435364\H,0,-3.057122,-4.286033,
 3.585884\H,0,-4.301677,-4.956072,4.62855\H,0,4.82812,0.684785,-0.81643
 7\H,0,3.710173,3.434604,-2.706288\H,0,4.588171,1.902533,-2.825678\H,0,
 5.244771,3.226201,-1.873716\\Version=EM64L-G09RevA.02\State=1-A\HF=-12
 95.6191422\RMSD=6.336e-09\Dipole=2.576531,-1.1499875,-1.9401422\Quadru
 pole=-3.6426479,-13.0702058,16.7128538,6.1319399,-2.080956,1.8797766\P
 G=C01 [X(C20H36N4O4)]\\@


 ACTORS ARE SO FORTUNATE.  THEY CAN CHOOSE WHETHER
 THEY WILL APPEAR IN A TRAGEDY OR IN COMEDY,
 WHETHER THEY WILL SUFFER OF MAKE MERRY,
 LAUGH OR SHED TEARS.  BUT IN REAL LIFE IT IS DIFFERENT.
 MOST MEN AND WOMEN ARE FORCED TO PERFORM
 PARTS FOR WHICH THEY HAVE NO QUALIFICATIONS.
 THE WORLD IS A STAGE, BUT THE PLAY IS BADLY CAST.

                                   -- OSCAR WILDE
 Job cpu time:  0 days  0 hours  5 minutes 18.5 seconds.
 File lengths (MBytes):  RWF=    132 Int=      0 D2E=      0 Chk=     10 Scr=      1
 Normal termination of Gaussian 09 at Thu Dec  5 17:44:36 2019.
