 Entering Gaussian System, Link 0=g09
 Input=CHI3_-150.gau
 Output=CHI3_-150.log
 Initial command:
 /home/marie/Utilities//g09/l1.exe /tmp/g09/Gau-6884.inp -scrdir=/tmp/g09/
 Entering Link 1 = /home/marie/Utilities//g09/l1.exe PID=      6886.
  
 Copyright (c) 1988,1990,1992,1993,1995,1998,2003,2009, Gaussian, Inc.
                  All Rights Reserved.
  
 This is part of the Gaussian(R) 09 program.  It is based on
 the Gaussian(R) 03 system (copyright 2003, Gaussian, Inc.),
 the Gaussian(R) 98 system (copyright 1998, Gaussian, Inc.),
 the Gaussian(R) 94 system (copyright 1995, Gaussian, Inc.),
 the Gaussian 92(TM) system (copyright 1992, Gaussian, Inc.),
 the Gaussian 90(TM) system (copyright 1990, Gaussian, Inc.),
 the Gaussian 88(TM) system (copyright 1988, Gaussian, Inc.),
 the Gaussian 86(TM) system (copyright 1986, Carnegie Mellon
 University), and the Gaussian 82(TM) system (copyright 1983,
 Carnegie Mellon University). Gaussian is a federally registered
 trademark of Gaussian, Inc.
  
 This software contains proprietary and confidential information,
 including trade secrets, belonging to Gaussian, Inc.
  
 This software is provided under written license and may be
 used, copied, transmitted, or stored only in accord with that
 written license.
  
 The following legend is applicable only to US Government
 contracts under FAR:
  
                    RESTRICTED RIGHTS LEGEND
  
 Use, reproduction and disclosure by the US Government is
 subject to restrictions as set forth in subparagraphs (a)
 and (c) of the Commercial Computer Software - Restricted
 Rights clause in FAR 52.227-19.
  
 Gaussian, Inc.
 340 Quinnipiac St., Bldg. 40, Wallingford CT 06492
  
  
 ---------------------------------------------------------------
 Warning -- This program may not be used in any manner that
 competes with the business of Gaussian, Inc. or will provide
 assistance to any competitor of Gaussian, Inc.  The licensee
 of this program is prohibited from giving any competitor of
 Gaussian, Inc. access to this program.  By using this program,
 the user acknowledges that Gaussian, Inc. is engaged in the
 business of creating and licensing software in the field of
 computational chemistry and represents and warrants to the
 licensee that it is not a competitor of Gaussian, Inc. and that
 it will not use this program in any manner prohibited above.
 ---------------------------------------------------------------
  

 Cite this work as:
 Gaussian 09, Revision A.02,
 M. J. Frisch, G. W. Trucks, H. B. Schlegel, G. E. Scuseria, 
 M. A. Robb, J. R. Cheeseman, G. Scalmani, V. Barone, B. Mennucci, 
 G. A. Petersson, H. Nakatsuji, M. Caricato, X. Li, H. P. Hratchian, 
 A. F. Izmaylov, J. Bloino, G. Zheng, J. L. Sonnenberg, M. Hada, 
 M. Ehara, K. Toyota, R. Fukuda, J. Hasegawa, M. Ishida, T. Nakajima, 
 Y. Honda, O. Kitao, H. Nakai, T. Vreven, J. A. Montgomery, Jr., 
 J. E. Peralta, F. Ogliaro, M. Bearpark, J. J. Heyd, E. Brothers, 
 K. N. Kudin, V. N. Staroverov, R. Kobayashi, J. Normand, 
 K. Raghavachari, A. Rendell, J. C. Burant, S. S. Iyengar, J. Tomasi, 
 M. Cossi, N. Rega, J. M. Millam, M. Klene, J. E. Knox, J. B. Cross, 
 V. Bakken, C. Adamo, J. Jaramillo, R. Gomperts, R. E. Stratmann, 
 O. Yazyev, A. J. Austin, R. Cammi, C. Pomelli, J. W. Ochterski, 
 R. L. Martin, K. Morokuma, V. G. Zakrzewski, G. A. Voth, 
 P. Salvador, J. J. Dannenberg, S. Dapprich, A. D. Daniels, 
 O. Farkas, J. B. Foresman, J. V. Ortiz, J. Cioslowski, 
 and D. J. Fox, Gaussian, Inc., Wallingford CT, 2009.
 
 ******************************************
 Gaussian 09:  EM64L-G09RevA.02 11-Jun-2009
                 5-Dec-2019 
 ******************************************
 %chk=CHI3_-150
 %NoSave
 ---------------------------------
 #SP HF/6-31G* Geom=(ModRedundant)
 ---------------------------------
 1/18=120,38=1/1;
 2/12=2,17=6,18=5,40=1/2;
 3/5=1,6=6,7=1,11=9,16=1,25=1,30=1/1,2,3;
 4//1;
 5/5=2,38=5/2;
 6/7=2,8=2,9=2,10=2,28=1/1;
 99/5=1,9=1/99;
 ------------
 paramfit run
 ------------
 Symbolic Z-matrix:
 Charge =  0 Multiplicity = 1
 C-CT--0.3208          0.        0.        0. 
 N-N--0.5622           1.44819   0.        0. 
 C-C-0.8053            2.1232    0.47592   1.07237 
 O-O--0.6151           1.59018   0.69673   2.12445 
 C-CX-0.0839           3.65051   0.59414   0.92154 
 C-CU--0.3230          4.1989    1.54925   1.98685 
 C-CU--0.0657          4.30775  -0.80912   1.02398 
 C-CU--0.0109          4.13357  -1.62278   2.31907 
 C-CU-0.0816           2.83273  -2.4333    2.48497 
 C-CM--0.2354          2.38923  -2.5971    3.9198 
 C-CM--0.2653          1.47695  -1.89055   4.56733 
 C-CU-0.1214           0.65342  -0.74384   4.03196 
 C-CU--0.0354         -0.79651  -1.11757   3.67476 
 C-CU--0.0984         -1.59258  -1.62515   4.88452 
 C-CU-0.1300          -3.1136   -1.86819   4.70539 
 C-CU--0.3561         -3.65435  -2.42682   6.03165 
 N-N--0.7186          -3.75643  -0.59314   4.41804 
 C-C-0.8537           -5.07464  -0.52117   4.07135 
 C-CT--0.3868         -5.49798   0.78655   3.44249 
 O-O--0.6323          -5.84508  -1.42331   4.24946 
 C-C-0.7903           -3.32284  -2.80048   3.49058 
 O-O--0.6136          -3.34344  -2.3494    2.37701 
 N-N--0.5650          -3.37536  -4.12903   3.72758 
 C-CT--0.3231         -3.62028  -5.05494   2.64089 
 N-N--0.7191           3.99741   1.07028  -0.42545 
 C-C-0.8539            3.58702   2.26716  -0.93409 
 C-CT--0.3903          4.32815   2.72766  -2.17214 
 O-O--0.6290           2.69713   2.90543  -0.4474 
 H-H1-0.1459          -0.40326   1.00615   0. 
 H-H1-0.1459          -0.36496  -0.516     0.87594 
 H-H1-0.1459          -0.34566  -0.52209  -0.88335 
 H-H-0.3572            1.90424   0.07091  -0.87936 
 H-HC-0.0997           3.93214   1.22176   2.98008 
 H-HC-0.0997           5.28092   1.59593   1.9075 
 H-HC-0.0997           3.79271   2.54059   1.8484 
 H-HC-0.0347           5.37458  -0.64325   0.89141 
 H-HC-0.0347           3.98464  -1.40332   0.17498 
 H-HC-0.0243           4.96157  -2.32476   2.35464 
 H-HC-0.0243           4.25012  -0.97572   3.18226 
 H-HC-0.0171           2.94488  -3.41138   2.03537 
 H-HC-0.0171           2.06458  -1.92665   1.9113 
 H-HA-0.1313           2.87945  -3.38811   4.46394 
 H-HA-0.1359           1.28657  -2.15545   5.5956 
 H-HC-0.0092           1.12229  -0.32369   3.15042 
 H-HC-0.0092           0.64146   0.0509    4.77683 
 H-HC-0.0318          -1.26761  -0.23876   3.24333 
 H-HC-0.0318          -0.79059  -1.86606   2.89338 
 H-HC-0.0435          -1.48639  -0.92167   5.70754 
 H-HC-0.0435          -1.15766  -2.5602    5.2175 
 H-HC-0.1066          -3.55494  -1.66439   6.79546 
 H-HC-0.1066          -3.0822   -3.28938   6.35723 
 H-HC-0.1066          -4.69778  -2.6938    5.95603 
 H-H-0.3529           -3.17516   0.08736   3.98474 
 H-HC-0.1047          -6.56637   0.89926   3.54688 
 H-HC-0.1047          -5.25248   0.75738   2.38513 
 H-HC-0.1047          -4.99283   1.63643   3.88847 
 H-H-0.3615           -3.59519  -4.43717   4.64521 
 H-H1-0.1469          -3.50386  -6.06402   3.0139 
 H-H1-0.1469          -2.90417  -4.88683   1.84998 
 H-H1-0.1469          -4.61813  -4.93907   2.23026 
 H-H-0.3570            4.82812   0.68479  -0.81644 
 H-HC-0.1060           3.71017   3.4346   -2.70629 
 H-HC-0.1060           4.58817   1.90253  -2.82568 
 H-HC-0.1060           5.24477   3.2262   -1.87372 
 
 The following ModRedundant input section has been read:
 D    *    8    9    * F                                                       
 Stoichiometry    C20H36N4O4
 Framework group  C1[X(C20H36N4O4)]
 Deg. of freedom   186
 Full point group                 C1      NOp   1
 Largest Abelian subgroup         C1      NOp   1
 Largest concise Abelian subgroup C1      NOp   1
                         Standard orientation:                         
 ---------------------------------------------------------------------
 Center     Atomic      Atomic             Coordinates (Angstroms)
 Number     Number       Type             X           Y           Z
 ---------------------------------------------------------------------
      1          6    20001001        1.284311   -1.652420    1.416086
      2          7    20001014        2.495502   -0.888840    1.198813
      3          6    20001002        2.760679   -0.377822   -0.026198
      4          8    20001024        1.937511   -0.331081   -0.897952
      5          6    90000001        4.143095    0.273535   -0.210714
      6          6    90000002        4.468320    0.372607   -1.704788
      7          6    90000002        4.171665    1.668651    0.470781
      8          6    90000002        3.192417    2.754862   -0.009695
      9          6    90000002        1.757568    2.723863    0.553230
     10          6    20001004        0.713916    3.268824   -0.393388
     11          6    20001004       -0.087331    2.582359   -1.191841
     12          6    90000002       -0.156012    1.082916   -1.355260
     13          6    90000002       -1.342103    0.420309   -0.631585
     14          6    90000002       -2.700720    0.920852   -1.140045
     15          6    90000002       -3.978410    0.209653   -0.623954
     16          6    90000002       -5.190942    0.934983   -1.229855
     17          7    20001014       -3.958997   -1.171672   -1.085575
     18          6    20001002       -4.887917   -2.078016   -0.662842
     19          6    20001001       -4.526954   -3.524474   -0.912380
     20          8    20001024       -5.915565   -1.758341   -0.132851
     21          6    20001002       -3.947930    0.204160    0.921285
     22          8    20001024       -3.332924   -0.642289    1.512235
     23          7    20001014       -4.545445    1.233809    1.559078
     24          6    20001001       -4.597736    1.264053    3.006335
     25          7    20001014        5.174370   -0.504700    0.490894
     26          6    20001002        5.456778   -1.809786    0.214003
     27          6    20001001        6.765599   -2.318750    0.781508
     28          8    20001024        4.720212   -2.509912   -0.421162
     29          1    20001035        1.289103   -2.582994    0.860246
     30          1    20001035        0.426957   -1.072561    1.107166
     31          1    20001035        1.197608   -1.869639    2.473276
     32          1    20001029        3.279198   -1.104644    1.769369
     33          1    20001034        3.706736    0.923835   -2.234947
     34          1    20001034        5.423257    0.873207   -1.834142
     35          1    20001034        4.525168   -0.612822   -2.143678
     36          1    20001034        5.177313    2.051641    0.312001
     37          1    20001034        4.064530    1.530630    1.542113
     38          1    20001034        3.630969    3.708751    0.268490
     39          1    20001034        3.138664    2.752809   -1.093429
     40          1    20001034        1.712198    3.273513    1.484460
     41          1    20001034        1.534077    1.692675    0.803304
     42          1    20001033        0.620984    4.342766   -0.404655
     43          1    20001033       -0.778819    3.145372   -1.798982
     44          1    20001034        0.758063    0.623659   -0.998866
     45          1    20001034       -0.216162    0.853132   -2.418357
     46          1    20001034       -1.251805   -0.654200   -0.764439
     47          1    20001034       -1.255592    0.597062    0.432419
     48          1    20001034       -2.726681    0.854538   -2.225614
     49          1    20001034       -2.798051    1.970999   -0.890911
     50          1    20001034       -5.177072    0.795728   -2.304562
     51          1    20001034       -5.145675    2.002353   -1.039972
     52          1    20001034       -6.121859    0.540447   -0.851079
     53          1    20001029       -3.055160   -1.550659   -1.253385
     54          1    20001034       -5.427076   -4.120071   -0.902144
     55          1    20001034       -3.876834   -3.861999   -0.110790
     56          1    20001034       -4.007331   -3.658826   -1.854890
     57          1    20001029       -5.228680    1.761096    1.068703
     58          1    20001035       -5.003837    2.217553    3.317527
     59          1    20001035       -3.601531    1.156811    3.409696
     60          1    20001035       -5.216305    0.465802    3.403730
     61          1    20001029        5.906220    0.028006    0.905824
     62          1    20001034        6.718801   -3.395449    0.855683
     63          1    20001034        6.983602   -1.894358    1.755117
     64          1    20001034        7.573366   -2.053516    0.106997
 ---------------------------------------------------------------------
 Rotational constants (GHZ):      0.2924932      0.0755247      0.0684779
 Standard basis: 6-31G(d) (6D, 7F)
 There are   492 symmetry adapted basis functions of A   symmetry.
 Integral buffers will be    131072 words long.
 Raffenetti 1 integral format.
 Two-electron integral symmetry is turned on.
   492 basis functions,   928 primitive gaussians,   492 cartesian basis functions
   108 alpha electrons      108 beta electrons
       nuclear repulsion energy      2835.6735968432 Hartrees.
 NAtoms=   64 NActive=   64 NUniq=   64 SFac= 7.50D-01 NAtFMM=   80 NAOKFM=F Big=T
 One-electron integrals computed using PRISM.
 NBasis=   492 RedAO= T  NBF=   492
 NBsUse=   492 1.00D-06 NBFU=   492
 Harris functional with IExCor=  205 diagonalized for initial guess.
 ExpMin= 1.61D-01 ExpMax= 5.48D+03 ExpMxC= 8.25D+02 IAcc=1 IRadAn=         1 AccDes= 0.00D+00
 HarFok:  IExCor=  205 AccDes= 0.00D+00 IRadAn=         1 IDoV= 1
 ScaDFX=  1.000000  1.000000  1.000000  1.000000
 FoFCou: FMM=F IPFlag=           0 FMFlag=      100000 FMFlg1=           1
         NFxFlg=           0 DoJE=T BraDBF=F KetDBF=T FulRan=T
         Omega=  0.000000  0.000000  1.000000  0.000000  0.000000 ICntrl=     500 IOpCl=  0
         NMat0=    1 NMatS0=    1 NMatT0=    0 NMatD0=    1 NMtDS0=    0 NMtDT0=    0
         I1Cent=           4 NGrid=           0.
 Petite list used in FoFCou.
 Initial guess orbital symmetries:
       Occupied  (A) (A) (A) (A) (A) (A) (A) (A) (A) (A) (A) (A)
                 (A) (A) (A) (A) (A) (A) (A) (A) (A) (A) (A) (A)
                 (A) (A) (A) (A) (A) (A) (A) (A) (A) (A) (A) (A)
                 (A) (A) (A) (A) (A) (A) (A) (A) (A) (A) (A) (A)
                 (A) (A) (A) (A) (A) (A) (A) (A) (A) (A) (A) (A)
                 (A) (A) (A) (A) (A) (A) (A) (A) (A) (A) (A) (A)
                 (A) (A) (A) (A) (A) (A) (A) (A) (A) (A) (A) (A)
                 (A) (A) (A) (A) (A) (A) (A) (A) (A) (A) (A) (A)
                 (A) (A) (A) (A) (A) (A) (A) (A) (A) (A) (A) (A)
       Virtual   (A) (A) (A) (A) (A) (A) (A) (A) (A) (A) (A) (A)
                 (A) (A) (A) (A) (A) (A) (A) (A) (A) (A) (A) (A)
                 (A) (A) (A) (A) (A) (A) (A) (A) (A) (A) (A) (A)
                 (A) (A) (A) (A) (A) (A) (A) (A) (A) (A) (A) (A)
                 (A) (A) (A) (A) (A) (A) (A) (A) (A) (A) (A) (A)
                 (A) (A) (A) (A) (A) (A) (A) (A) (A) (A) (A) (A)
                 (A) (A) (A) (A) (A) (A) (A) (A) (A) (A) (A) (A)
                 (A) (A) (A) (A) (A) (A) (A) (A) (A) (A) (A) (A)
                 (A) (A) (A) (A) (A) (A) (A) (A) (A) (A) (A) (A)
                 (A) (A) (A) (A) (A) (A) (A) (A) (A) (A) (A) (A)
                 (A) (A) (A) (A) (A) (A) (A) (A) (A) (A) (A) (A)
                 (A) (A) (A) (A) (A) (A) (A) (A) (A) (A) (A) (A)
                 (A) (A) (A) (A) (A) (A) (A) (A) (A) (A) (A) (A)
                 (A) (A) (A) (A) (A) (A) (A) (A) (A) (A) (A) (A)
                 (A) (A) (A) (A) (A) (A) (A) (A) (A) (A) (A) (A)
                 (A) (A) (A) (A) (A) (A) (A) (A) (A) (A) (A) (A)
                 (A) (A) (A) (A) (A) (A) (A) (A) (A) (A) (A) (A)
                 (A) (A) (A) (A) (A) (A) (A) (A) (A) (A) (A) (A)
                 (A) (A) (A) (A) (A) (A) (A) (A) (A) (A) (A) (A)
                 (A) (A) (A) (A) (A) (A) (A) (A) (A) (A) (A) (A)
                 (A) (A) (A) (A) (A) (A) (A) (A) (A) (A) (A) (A)
                 (A) (A) (A) (A) (A) (A) (A) (A) (A) (A) (A) (A)
                 (A) (A) (A) (A) (A) (A) (A) (A) (A) (A) (A) (A)
                 (A) (A) (A) (A) (A) (A) (A) (A) (A) (A) (A) (A)
                 (A) (A) (A) (A) (A) (A) (A) (A) (A) (A) (A) (A)
                 (A) (A) (A) (A) (A) (A) (A) (A) (A) (A) (A) (A)
                 (A) (A) (A) (A) (A) (A) (A) (A) (A) (A) (A) (A)
                 (A) (A) (A) (A) (A) (A) (A) (A) (A) (A) (A) (A)
                 (A) (A) (A) (A) (A) (A) (A) (A) (A) (A) (A) (A)
                 (A) (A) (A) (A) (A) (A) (A) (A) (A) (A) (A) (A)
                 (A) (A) (A) (A) (A) (A) (A) (A) (A) (A) (A) (A)
                 (A) (A) (A) (A) (A) (A) (A) (A) (A) (A) (A) (A)
 The electronic state of the initial guess is 1-A.
 Requested convergence on RMS density matrix=1.00D-08 within 128 cycles.
 Requested convergence on MAX density matrix=1.00D-06.
 Requested convergence on             energy=1.00D-06.
 No special actions if energy rises.
 Integral accuracy reduced to 1.0D-05 until final iterations.
 Initial convergence to 1.0D-05 achieved.  Increase integral accuracy.
 SCF Done:  E(RHF) =  -1295.58892041     A.U. after   14 cycles
             Convg  =    0.7347D-08             -V/T =  2.0010

 **********************************************************************

            Population analysis using the SCF density.

 **********************************************************************

 Orbital symmetries:
       Occupied  (A) (A) (A) (A) (A) (A) (A) (A) (A) (A) (A) (A)
                 (A) (A) (A) (A) (A) (A) (A) (A) (A) (A) (A) (A)
                 (A) (A) (A) (A) (A) (A) (A) (A) (A) (A) (A) (A)
                 (A) (A) (A) (A) (A) (A) (A) (A) (A) (A) (A) (A)
                 (A) (A) (A) (A) (A) (A) (A) (A) (A) (A) (A) (A)
                 (A) (A) (A) (A) (A) (A) (A) (A) (A) (A) (A) (A)
                 (A) (A) (A) (A) (A) (A) (A) (A) (A) (A) (A) (A)
                 (A) (A) (A) (A) (A) (A) (A) (A) (A) (A) (A) (A)
                 (A) (A) (A) (A) (A) (A) (A) (A) (A) (A) (A) (A)
       Virtual   (A) (A) (A) (A) (A) (A) (A) (A) (A) (A) (A) (A)
                 (A) (A) (A) (A) (A) (A) (A) (A) (A) (A) (A) (A)
                 (A) (A) (A) (A) (A) (A) (A) (A) (A) (A) (A) (A)
                 (A) (A) (A) (A) (A) (A) (A) (A) (A) (A) (A) (A)
                 (A) (A) (A) (A) (A) (A) (A) (A) (A) (A) (A) (A)
                 (A) (A) (A) (A) (A) (A) (A) (A) (A) (A) (A) (A)
                 (A) (A) (A) (A) (A) (A) (A) (A) (A) (A) (A) (A)
                 (A) (A) (A) (A) (A) (A) (A) (A) (A) (A) (A) (A)
                 (A) (A) (A) (A) (A) (A) (A) (A) (A) (A) (A) (A)
                 (A) (A) (A) (A) (A) (A) (A) (A) (A) (A) (A) (A)
                 (A) (A) (A) (A) (A) (A) (A) (A) (A) (A) (A) (A)
                 (A) (A) (A) (A) (A) (A) (A) (A) (A) (A) (A) (A)
                 (A) (A) (A) (A) (A) (A) (A) (A) (A) (A) (A) (A)
                 (A) (A) (A) (A) (A) (A) (A) (A) (A) (A) (A) (A)
                 (A) (A) (A) (A) (A) (A) (A) (A) (A) (A) (A) (A)
                 (A) (A) (A) (A) (A) (A) (A) (A) (A) (A) (A) (A)
                 (A) (A) (A) (A) (A) (A) (A) (A) (A) (A) (A) (A)
                 (A) (A) (A) (A) (A) (A) (A) (A) (A) (A) (A) (A)
                 (A) (A) (A) (A) (A) (A) (A) (A) (A) (A) (A) (A)
                 (A) (A) (A) (A) (A) (A) (A) (A) (A) (A) (A) (A)
                 (A) (A) (A) (A) (A) (A) (A) (A) (A) (A) (A) (A)
                 (A) (A) (A) (A) (A) (A) (A) (A) (A) (A) (A) (A)
                 (A) (A) (A) (A) (A) (A) (A) (A) (A) (A) (A) (A)
                 (A) (A) (A) (A) (A) (A) (A) (A) (A) (A) (A) (A)
                 (A) (A) (A) (A) (A) (A) (A) (A) (A) (A) (A) (A)
                 (A) (A) (A) (A) (A) (A) (A) (A) (A) (A) (A) (A)
                 (A) (A) (A) (A) (A) (A) (A) (A) (A) (A) (A) (A)
                 (A) (A) (A) (A) (A) (A) (A) (A) (A) (A) (A) (A)
                 (A) (A) (A) (A) (A) (A) (A) (A) (A) (A) (A) (A)
                 (A) (A) (A) (A) (A) (A) (A) (A) (A) (A) (A) (A)
                 (A) (A) (A) (A) (A) (A) (A) (A) (A) (A) (A) (A)
                 (A) (A) (A) (A) (A) (A) (A) (A) (A) (A) (A) (A)
 The electronic state is 1-A.
 Alpha  occ. eigenvalues --  -20.54011 -20.52982 -20.51280 -20.50901 -15.60023
 Alpha  occ. eigenvalues --  -15.58101 -15.57296 -15.56571 -11.36317 -11.34876
 Alpha  occ. eigenvalues --  -11.33473 -11.32950 -11.29617 -11.27454 -11.24888
 Alpha  occ. eigenvalues --  -11.24641 -11.24600 -11.24468 -11.22549 -11.21833
 Alpha  occ. eigenvalues --  -11.21804 -11.21546 -11.21308 -11.20892 -11.20673
 Alpha  occ. eigenvalues --  -11.20415 -11.20228 -11.17237  -1.41178  -1.40364
 Alpha  occ. eigenvalues --   -1.38626  -1.37374  -1.25958  -1.22753  -1.22602
 Alpha  occ. eigenvalues --   -1.22003  -1.10107  -1.08239  -1.06460  -1.03289
 Alpha  occ. eigenvalues --   -1.00794  -0.99153  -0.98052  -0.95869  -0.94629
 Alpha  occ. eigenvalues --   -0.94032  -0.90807  -0.87124  -0.84526  -0.82883
 Alpha  occ. eigenvalues --   -0.80329  -0.78964  -0.78610  -0.77948  -0.76125
 Alpha  occ. eigenvalues --   -0.72411  -0.70959  -0.70517  -0.69242  -0.67762
 Alpha  occ. eigenvalues --   -0.66792  -0.66412  -0.63876  -0.63643  -0.63241
 Alpha  occ. eigenvalues --   -0.62931  -0.62638  -0.61111  -0.60850  -0.60662
 Alpha  occ. eigenvalues --   -0.60292  -0.59869  -0.59401  -0.58228  -0.58162
 Alpha  occ. eigenvalues --   -0.57772  -0.57401  -0.56450  -0.55694  -0.55184
 Alpha  occ. eigenvalues --   -0.54818  -0.54480  -0.54321  -0.54023  -0.53695
 Alpha  occ. eigenvalues --   -0.52806  -0.52558  -0.51922  -0.51678  -0.50563
 Alpha  occ. eigenvalues --   -0.50487  -0.50298  -0.48882  -0.48460  -0.47823
 Alpha  occ. eigenvalues --   -0.46929  -0.46404  -0.44435  -0.43974  -0.43053
 Alpha  occ. eigenvalues --   -0.41339  -0.40680  -0.40285  -0.39864  -0.38128
 Alpha  occ. eigenvalues --   -0.37715  -0.37504  -0.32842
 Alpha virt. eigenvalues --    0.18421   0.19150   0.19242   0.19807   0.20444
 Alpha virt. eigenvalues --    0.22404   0.22935   0.23787   0.23929   0.24437
 Alpha virt. eigenvalues --    0.25663   0.25921   0.26736   0.27189   0.27979
 Alpha virt. eigenvalues --    0.28528   0.28641   0.29161   0.29300   0.29389
 Alpha virt. eigenvalues --    0.30173   0.30981   0.31619   0.31888   0.32164
 Alpha virt. eigenvalues --    0.32886   0.33190   0.33331   0.33795   0.34081
 Alpha virt. eigenvalues --    0.34492   0.34659   0.35098   0.35272   0.35360
 Alpha virt. eigenvalues --    0.36158   0.36689   0.36902   0.38031   0.38689
 Alpha virt. eigenvalues --    0.39004   0.39950   0.40290   0.40557   0.41395
 Alpha virt. eigenvalues --    0.41967   0.42242   0.43609   0.44414   0.45279
 Alpha virt. eigenvalues --    0.45449   0.45994   0.47046   0.48214   0.48783
 Alpha virt. eigenvalues --    0.49544   0.50148   0.51121   0.53246   0.54040
 Alpha virt. eigenvalues --    0.56013   0.57068   0.58562   0.59438   0.61714
 Alpha virt. eigenvalues --    0.62862   0.64373   0.65263   0.69748   0.71118
 Alpha virt. eigenvalues --    0.71552   0.71923   0.72480   0.73369   0.73809
 Alpha virt. eigenvalues --    0.74620   0.75544   0.76459   0.77008   0.77165
 Alpha virt. eigenvalues --    0.77341   0.78248   0.78666   0.79429   0.79721
 Alpha virt. eigenvalues --    0.80345   0.81054   0.81599   0.82277   0.82841
 Alpha virt. eigenvalues --    0.83070   0.84800   0.85195   0.86396   0.86812
 Alpha virt. eigenvalues --    0.87962   0.89329   0.90141   0.90773   0.91756
 Alpha virt. eigenvalues --    0.92665   0.92986   0.93334   0.94534   0.94797
 Alpha virt. eigenvalues --    0.96029   0.96402   0.96733   0.97536   0.97924
 Alpha virt. eigenvalues --    0.98228   0.99064   0.99868   1.00718   1.01060
 Alpha virt. eigenvalues --    1.01733   1.02250   1.02871   1.03361   1.04248
 Alpha virt. eigenvalues --    1.04874   1.05711   1.06003   1.07018   1.08135
 Alpha virt. eigenvalues --    1.08407   1.09458   1.10680   1.10962   1.11920
 Alpha virt. eigenvalues --    1.12679   1.13865   1.13999   1.14170   1.14788
 Alpha virt. eigenvalues --    1.15043   1.15258   1.15840   1.16107   1.16833
 Alpha virt. eigenvalues --    1.17196   1.17286   1.17920   1.18209   1.18302
 Alpha virt. eigenvalues --    1.18839   1.19092   1.19427   1.19774   1.20261
 Alpha virt. eigenvalues --    1.20347   1.20782   1.21050   1.21586   1.22063
 Alpha virt. eigenvalues --    1.22505   1.22809   1.22859   1.23617   1.23716
 Alpha virt. eigenvalues --    1.24420   1.25111   1.25450   1.26461   1.26922
 Alpha virt. eigenvalues --    1.27769   1.28087   1.30358   1.30623   1.31163
 Alpha virt. eigenvalues --    1.31443   1.32437   1.32947   1.33721   1.35035
 Alpha virt. eigenvalues --    1.36916   1.37593   1.38607   1.39108   1.39668
 Alpha virt. eigenvalues --    1.41068   1.42667   1.42979   1.43756   1.44997
 Alpha virt. eigenvalues --    1.45719   1.48348   1.48937   1.50743   1.50967
 Alpha virt. eigenvalues --    1.52195   1.54427   1.54748   1.55581   1.57272
 Alpha virt. eigenvalues --    1.57930   1.59300   1.61868   1.62341   1.63820
 Alpha virt. eigenvalues --    1.64178   1.66392   1.68066   1.69533   1.70494
 Alpha virt. eigenvalues --    1.72204   1.72544   1.73446   1.74553   1.74707
 Alpha virt. eigenvalues --    1.75440   1.78437   1.79401   1.80784   1.81227
 Alpha virt. eigenvalues --    1.81940   1.84648   1.85881   1.87887   1.90459
 Alpha virt. eigenvalues --    1.91484   1.92033   1.92429   1.95206   1.96436
 Alpha virt. eigenvalues --    1.97542   1.98504   1.99382   2.01115   2.01637
 Alpha virt. eigenvalues --    2.05809   2.06485   2.07363   2.07976   2.08254
 Alpha virt. eigenvalues --    2.09637   2.11141   2.11508   2.12521   2.13288
 Alpha virt. eigenvalues --    2.13620   2.14979   2.15046   2.15526   2.16834
 Alpha virt. eigenvalues --    2.17261   2.17815   2.18434   2.18908   2.20131
 Alpha virt. eigenvalues --    2.20784   2.21062   2.22726   2.22945   2.23763
 Alpha virt. eigenvalues --    2.25222   2.25839   2.26882   2.27863   2.29139
 Alpha virt. eigenvalues --    2.29702   2.30062   2.30677   2.31233   2.32428
 Alpha virt. eigenvalues --    2.32794   2.34089   2.34322   2.34915   2.36561
 Alpha virt. eigenvalues --    2.38213   2.38699   2.38966   2.39626   2.40674
 Alpha virt. eigenvalues --    2.40787   2.41906   2.42702   2.43645   2.44547
 Alpha virt. eigenvalues --    2.45963   2.48388   2.49676   2.50748   2.52042
 Alpha virt. eigenvalues --    2.52474   2.54182   2.54945   2.55531   2.56263
 Alpha virt. eigenvalues --    2.57181   2.57774   2.58091   2.60071   2.60806
 Alpha virt. eigenvalues --    2.63221   2.63844   2.64354   2.65059   2.65500
 Alpha virt. eigenvalues --    2.66770   2.69323   2.70477   2.71222   2.71867
 Alpha virt. eigenvalues --    2.72263   2.74093   2.75502   2.76638   2.77238
 Alpha virt. eigenvalues --    2.78144   2.78575   2.79278   2.80574   2.82056
 Alpha virt. eigenvalues --    2.82539   2.84156   2.85246   2.86693   2.87203
 Alpha virt. eigenvalues --    2.87584   2.90368   2.90631   2.95156   2.96431
 Alpha virt. eigenvalues --    2.97149   2.97964   2.99091   3.01425   3.02766
 Alpha virt. eigenvalues --    3.03950   3.05537   3.05628   3.07292   3.09785
 Alpha virt. eigenvalues --    3.11259   3.13011   3.14111   3.14880   3.16392
 Alpha virt. eigenvalues --    3.18216   3.20457   3.24021   3.29363   3.31567
 Alpha virt. eigenvalues --    3.35258   3.35408   3.38461   3.41304   3.42828
 Alpha virt. eigenvalues --    3.43451   3.47313   3.54319   3.56479   3.58397
 Alpha virt. eigenvalues --    3.60045   4.39163   4.40861   4.44247   4.48019
 Alpha virt. eigenvalues --    4.50166   4.52746   4.57381   4.61220   4.62356
 Alpha virt. eigenvalues --    4.64344   4.66612   4.68057   4.70583   4.71092
 Alpha virt. eigenvalues --    4.72131   4.78985   4.81313   4.86080   4.86914
 Alpha virt. eigenvalues --    4.89717   4.91211   4.95182   4.99461   5.02081
 Alpha virt. eigenvalues --    5.04958   5.13842   5.21745   5.24868
          Condensed to atoms (all electrons):
 Mulliken atomic charges:
              1
     1  C   -0.293167
     2  N   -0.777134
     3  C    0.825149
     4  O   -0.644091
     5  C    0.102440
     6  C   -0.473644
     7  C   -0.334472
     8  C   -0.315120
     9  C   -0.360840
    10  C   -0.192482
    11  C   -0.155924
    12  C   -0.383903
    13  C   -0.316293
    14  C   -0.322435
    15  C    0.090619
    16  C   -0.509311
    17  N   -0.787811
    18  C    0.766703
    19  C   -0.595001
    20  O   -0.616856
    21  C    0.822289
    22  O   -0.644279
    23  N   -0.805730
    24  C   -0.273405
    25  N   -0.842968
    26  C    0.744871
    27  C   -0.589087
    28  O   -0.592211
    29  H    0.184514
    30  H    0.214721
    31  H    0.172290
    32  H    0.394896
    33  H    0.199957
    34  H    0.147650
    35  H    0.212670
    36  H    0.163273
    37  H    0.178998
    38  H    0.162903
    39  H    0.188213
    40  H    0.166322
    41  H    0.185257
    42  H    0.163400
    43  H    0.160045
    44  H    0.294334
    45  H    0.143050
    46  H    0.150194
    47  H    0.177925
    48  H    0.173522
    49  H    0.178714
    50  H    0.183639
    51  H    0.146916
    52  H    0.222634
    53  H    0.392618
    54  H    0.208423
    55  H    0.206783
    56  H    0.178699
    57  H    0.395310
    58  H    0.163109
    59  H    0.195452
    60  H    0.183217
    61  H    0.384202
    62  H    0.219876
    63  H    0.178394
    64  H    0.201974
 Sum of Mulliken atomic charges =   0.00000
 Mulliken charges with hydrogens summed into heavy atoms:
              1
     1  C    0.278359
     2  N   -0.382238
     3  C    0.825149
     4  O   -0.644091
     5  C    0.102440
     6  C    0.086633
     7  C    0.007800
     8  C    0.035996
     9  C   -0.009260
    10  C   -0.029083
    11  C    0.004120
    12  C    0.053481
    13  C    0.011825
    14  C    0.029801
    15  C    0.090619
    16  C    0.043877
    17  N   -0.395193
    18  C    0.766703
    19  C   -0.001096
    20  O   -0.616856
    21  C    0.822289
    22  O   -0.644279
    23  N   -0.410419
    24  C    0.268373
    25  N   -0.458766
    26  C    0.744871
    27  C    0.011156
    28  O   -0.592211
 Sum of Mulliken charges with hydrogens summed into heavy atoms =   0.00000
 Electronic spatial extent (au):  <R**2>=          16030.1360
 Charge=              0.0000 electrons
 Dipole moment (field-independent basis, Debye):
    X=              6.8048    Y=              3.0314    Z=              2.3633  Tot=              7.8154
 Quadrupole moment (field-independent basis, Debye-Ang):
   XX=           -148.5152   YY=           -168.9102   ZZ=           -168.6941
   XY=             -9.0410   XZ=             17.7759   YZ=              1.5742
 Traceless Quadrupole moment (field-independent basis, Debye-Ang):
   XX=             13.5246   YY=             -6.8703   ZZ=             -6.6543
   XY=             -9.0410   XZ=             17.7759   YZ=              1.5742
 Octapole moment (field-independent basis, Debye-Ang**2):
  XXX=            416.8390  YYY=            -30.1684  ZZZ=             26.2136  XYY=            -41.5150
  XXY=             94.7976  XXZ=             67.5279  XZZ=             -8.1000  YZZ=             -7.0254
  YYZ=             14.6681  XYZ=            -51.0212
 Hexadecapole moment (field-independent basis, Debye-Ang**3):
 XXXX=         -15209.3632 YYYY=          -3406.2414 ZZZZ=          -1568.1624 XXXY=           -798.3965
 XXXZ=            224.7555 YYYX=            113.9061 YYYZ=             19.4014 ZZZX=            -52.0025
 ZZZY=             28.0509 XXYY=          -3174.7924 XXZZ=          -2827.5127 YYZZ=           -836.6360
 XXYZ=             42.1629 YYXZ=             88.2616 ZZXY=            -60.7515
 N-N= 2.835673596843D+03 E-N=-8.704497813586D+03  KE= 1.294236764209D+03
 1\1\GINC-MOSURA\SP\RHF\6-31G(d)\C20H36N4O4\MARIE\05-Dec-2019\0\\#SP HF
 /6-31G* Geom=(ModRedundant)\\paramfit run\\0,1\C,0,0.,0.,0.\N,0,1.4481
 87,0.,0.\C,0,2.1232,0.47592,1.072365\O,0,1.590179,0.696732,2.124447\C,
 0,3.650505,0.594143,0.921539\C,0,4.198902,1.549248,1.986845\C,0,4.3077
 51,-0.809116,1.023981\C,0,4.133566,-1.622781,2.319066\C,0,2.832729,-2.
 433298,2.484965\C,0,2.389232,-2.597096,3.919802\C,0,1.476953,-1.890545
 ,4.567328\C,0,0.653424,-0.74384,4.031958\C,0,-0.796507,-1.117567,3.674
 756\C,0,-1.592582,-1.625152,4.884523\C,0,-3.113599,-1.868185,4.70539\C
 ,0,-3.654354,-2.426816,6.031651\N,0,-3.756431,-0.593144,4.418043\C,0,-
 5.074641,-0.52117,4.071348\C,0,-5.497979,0.786547,3.442486\O,0,-5.8450
 76,-1.423305,4.249462\C,0,-3.322837,-2.800479,3.490577\O,0,-3.343442,-
 2.349403,2.377008\N,0,-3.375359,-4.129031,3.727582\C,0,-3.62028,-5.054
 944,2.640889\N,0,3.997412,1.070275,-0.425452\C,0,3.587019,2.267163,-0.
 934086\C,0,4.328148,2.727659,-2.172145\O,0,2.697134,2.905425,-0.447397
 \H,0,-0.403259,1.006147,0.\H,0,-0.36496,-0.516002,0.875939\H,0,-0.3456
 58,-0.522086,-0.883346\H,0,1.904244,0.070913,-0.879357\H,0,3.932135,1.
 22176,2.980082\H,0,5.28092,1.595925,1.9075\H,0,3.792711,2.540594,1.848
 395\H,0,5.374584,-0.64325,0.891407\H,0,3.984642,-1.403324,0.174983\H,0
 ,4.961565,-2.324757,2.354635\H,0,4.250121,-0.975721,3.182259\H,0,2.944
 882,-3.411382,2.035368\H,0,2.064583,-1.926649,1.911299\H,0,2.879452,-3
 .388113,4.463944\H,0,1.286574,-2.155454,5.595598\H,0,1.12229,-0.323693
 ,3.150421\H,0,0.641458,0.050904,4.77683\H,0,-1.267606,-0.238755,3.2433
 29\H,0,-0.790592,-1.866063,2.89338\H,0,-1.486391,-0.921665,5.707543\H,
 0,-1.157656,-2.560201,5.217497\H,0,-3.554939,-1.664393,6.795463\H,0,-3
 .082196,-3.28938,6.357228\H,0,-4.697781,-2.6938,5.956035\H,0,-3.175157
 ,0.087359,3.984744\H,0,-6.56637,0.89926,3.546875\H,0,-5.25248,0.757378
 ,2.385128\H,0,-4.992826,1.636429,3.888472\H,0,-3.595191,-4.43717,4.645
 206\H,0,-3.503863,-6.064017,3.013904\H,0,-2.904165,-4.886831,1.849976\
 H,0,-4.618132,-4.93907,2.230257\H,0,4.82812,0.684785,-0.816437\H,0,3.7
 10173,3.434604,-2.706288\H,0,4.588171,1.902533,-2.825678\H,0,5.244771,
 3.226201,-1.873716\\Version=EM64L-G09RevA.02\State=1-A\HF=-1295.588920
 4\RMSD=7.347e-09\Dipole=2.7284301,-0.5104303,-1.3227157\Quadrupole=-3.
 9280931,-4.5152847,8.4433777,-0.5650189,-14.7892481,-4.9452398\PG=C01 
 [X(C20H36N4O4)]\\@


 IT IS THE BEHAVIOR AND DISTRIBUTION OF THE ELECTRONS 
 AROUND THE NUCLEUS THAT GIVES THE FUNDAMENTAL 
 CHARACTER OF AN ATOM:  IT MUST BE THE SAME FOR MOLECULES.

                               -- C. A. COULSON, 1951
 Job cpu time:  0 days  0 hours  6 minutes 38.5 seconds.
 File lengths (MBytes):  RWF=    132 Int=      0 D2E=      0 Chk=     10 Scr=      1
 Normal termination of Gaussian 09 at Thu Dec  5 17:21:37 2019.
