 Entering Gaussian System, Link 0=g09
 Input=CHI3_-30.gau
 Output=CHI3_-30.log
 Initial command:
 /home/marie/Utilities//g09/l1.exe /tmp/g09/Gau-7228.inp -scrdir=/tmp/g09/
 Entering Link 1 = /home/marie/Utilities//g09/l1.exe PID=      7230.
  
 Copyright (c) 1988,1990,1992,1993,1995,1998,2003,2009, Gaussian, Inc.
                  All Rights Reserved.
  
 This is part of the Gaussian(R) 09 program.  It is based on
 the Gaussian(R) 03 system (copyright 2003, Gaussian, Inc.),
 the Gaussian(R) 98 system (copyright 1998, Gaussian, Inc.),
 the Gaussian(R) 94 system (copyright 1995, Gaussian, Inc.),
 the Gaussian 92(TM) system (copyright 1992, Gaussian, Inc.),
 the Gaussian 90(TM) system (copyright 1990, Gaussian, Inc.),
 the Gaussian 88(TM) system (copyright 1988, Gaussian, Inc.),
 the Gaussian 86(TM) system (copyright 1986, Carnegie Mellon
 University), and the Gaussian 82(TM) system (copyright 1983,
 Carnegie Mellon University). Gaussian is a federally registered
 trademark of Gaussian, Inc.
  
 This software contains proprietary and confidential information,
 including trade secrets, belonging to Gaussian, Inc.
  
 This software is provided under written license and may be
 used, copied, transmitted, or stored only in accord with that
 written license.
  
 The following legend is applicable only to US Government
 contracts under FAR:
  
                    RESTRICTED RIGHTS LEGEND
  
 Use, reproduction and disclosure by the US Government is
 subject to restrictions as set forth in subparagraphs (a)
 and (c) of the Commercial Computer Software - Restricted
 Rights clause in FAR 52.227-19.
  
 Gaussian, Inc.
 340 Quinnipiac St., Bldg. 40, Wallingford CT 06492
  
  
 ---------------------------------------------------------------
 Warning -- This program may not be used in any manner that
 competes with the business of Gaussian, Inc. or will provide
 assistance to any competitor of Gaussian, Inc.  The licensee
 of this program is prohibited from giving any competitor of
 Gaussian, Inc. access to this program.  By using this program,
 the user acknowledges that Gaussian, Inc. is engaged in the
 business of creating and licensing software in the field of
 computational chemistry and represents and warrants to the
 licensee that it is not a competitor of Gaussian, Inc. and that
 it will not use this program in any manner prohibited above.
 ---------------------------------------------------------------
  

 Cite this work as:
 Gaussian 09, Revision A.02,
 M. J. Frisch, G. W. Trucks, H. B. Schlegel, G. E. Scuseria, 
 M. A. Robb, J. R. Cheeseman, G. Scalmani, V. Barone, B. Mennucci, 
 G. A. Petersson, H. Nakatsuji, M. Caricato, X. Li, H. P. Hratchian, 
 A. F. Izmaylov, J. Bloino, G. Zheng, J. L. Sonnenberg, M. Hada, 
 M. Ehara, K. Toyota, R. Fukuda, J. Hasegawa, M. Ishida, T. Nakajima, 
 Y. Honda, O. Kitao, H. Nakai, T. Vreven, J. A. Montgomery, Jr., 
 J. E. Peralta, F. Ogliaro, M. Bearpark, J. J. Heyd, E. Brothers, 
 K. N. Kudin, V. N. Staroverov, R. Kobayashi, J. Normand, 
 K. Raghavachari, A. Rendell, J. C. Burant, S. S. Iyengar, J. Tomasi, 
 M. Cossi, N. Rega, J. M. Millam, M. Klene, J. E. Knox, J. B. Cross, 
 V. Bakken, C. Adamo, J. Jaramillo, R. Gomperts, R. E. Stratmann, 
 O. Yazyev, A. J. Austin, R. Cammi, C. Pomelli, J. W. Ochterski, 
 R. L. Martin, K. Morokuma, V. G. Zakrzewski, G. A. Voth, 
 P. Salvador, J. J. Dannenberg, S. Dapprich, A. D. Daniels, 
 O. Farkas, J. B. Foresman, J. V. Ortiz, J. Cioslowski, 
 and D. J. Fox, Gaussian, Inc., Wallingford CT, 2009.
 
 ******************************************
 Gaussian 09:  EM64L-G09RevA.02 11-Jun-2009
                 5-Dec-2019 
 ******************************************
 %chk=CHI3_-30
 %NoSave
 ---------------------------------
 #SP HF/6-31G* Geom=(ModRedundant)
 ---------------------------------
 1/18=120,38=1/1;
 2/12=2,17=6,18=5,40=1/2;
 3/5=1,6=6,7=1,11=9,16=1,25=1,30=1/1,2,3;
 4//1;
 5/5=2,38=5/2;
 6/7=2,8=2,9=2,10=2,28=1/1;
 99/5=1,9=1/99;
 ------------
 paramfit run
 ------------
 Symbolic Z-matrix:
 Charge =  0 Multiplicity = 1
 C-CT--0.3208          0.        0.        0. 
 N-N--0.5622           1.44819   0.        0. 
 C-C-0.8053            2.1232    0.47592   1.07237 
 O-O--0.6151           1.59018   0.69673   2.12445 
 C-CX-0.0839           3.65051   0.59414   0.92154 
 C-CU--0.3230          4.1989    1.54925   1.98685 
 C-CU--0.0657          4.30775  -0.80912   1.02398 
 C-CU--0.0109          4.13357  -1.62278   2.31907 
 C-CU-0.0816           2.83273  -2.4333    2.48497 
 C-CM--0.2354          1.63835  -1.82902   1.78454 
 C-CM--0.2653          1.14147  -2.16321   0.60463 
 C-CU-0.1214           1.64659  -3.23167  -0.33505 
 C-CU--0.0354          0.82044  -4.53045  -0.32052 
 C-CU--0.0984         -0.6378   -4.30968  -0.74443 
 C-CU-0.1300          -1.53486  -5.55854  -0.94512 
 C-CU--0.3561         -2.9462   -5.06447  -1.30214 
 N-N--0.7186          -1.00038  -6.34067  -2.05152 
 C-C-0.8537           -1.50287  -7.57079  -2.36355 
 C-CT--0.3868         -0.623    -8.40978  -3.26174 
 O-O--0.6323          -2.56209  -7.96321  -1.95957 
 C-C-0.7903           -1.46863  -6.42231   0.33482 
 O-O--0.6136          -0.56351  -7.19569   0.49777 
 N-N--0.5650          -2.39893  -6.19565   1.28726 
 C-CT--0.3231         -2.4251   -7.00429   2.48877 
 N-N--0.7191           3.99741   1.07028  -0.42545 
 C-C-0.8539            3.58702   2.26716  -0.93409 
 C-CT--0.3903          4.32815   2.72766  -2.17214 
 O-O--0.6290           2.69713   2.90543  -0.4474 
 H-H1-0.1459          -0.40326   1.00615   0. 
 H-H1-0.1459          -0.36496  -0.516     0.87594 
 H-H1-0.1459          -0.34566  -0.52209  -0.88335 
 H-H-0.3572            1.90424   0.07091  -0.87936 
 H-HC-0.0997           3.93214   1.22176   2.98008 
 H-HC-0.0997           5.28092   1.59593   1.9075 
 H-HC-0.0997           3.79271   2.54059   1.8484 
 H-HC-0.0347           5.37458  -0.64325   0.89141 
 H-HC-0.0347           3.98464  -1.40332   0.17498 
 H-HC-0.0243           4.96157  -2.32476   2.35464 
 H-HC-0.0243           4.25012  -0.97572   3.18226 
 H-HC-0.0171           2.60267  -2.5551    3.53549 
 H-HC-0.0171           3.02568  -3.42983   2.10348 
 H-HA-0.1313           1.14227  -1.03813   2.32353 
 H-HA-0.1359           0.2735   -1.62088   0.26367 
 H-HC-0.0092           2.67478  -3.48121  -0.10266 
 H-HC-0.0092           1.65398  -2.8275   -1.34658 
 H-HC-0.0318           1.31096  -5.24153  -0.97941 
 H-HC-0.0318           0.85768  -4.96674   0.66897 
 H-HC-0.0435          -0.66174  -3.7576   -1.68154 
 H-HC-0.0435          -1.1228   -3.68483  -0.0037 
 H-HC-0.1066          -2.90525  -4.5608   -2.2609 
 H-HC-0.1066          -3.3074   -4.34647  -0.57317 
 H-HC-0.1066          -3.64693  -5.8821   -1.38086 
 H-H-0.3529           -0.02449  -6.23765  -2.21194 
 H-HC-0.1047          -1.2271   -9.16251  -3.74498 
 H-HC-0.1047           0.1252   -8.90398  -2.64929 
 H-HC-0.1047          -0.11353  -7.81105  -4.00896 
 H-H-0.3615           -3.24292  -5.74343   1.02557 
 H-H1-0.1469          -3.15706  -6.58889   3.16892 
 H-H1-0.1469          -1.4543   -6.9862    2.96189 
 H-H1-0.1469          -2.68268  -8.03641   2.27402 
 H-H-0.3570            4.82812   0.68479  -0.81644 
 H-HC-0.1060           3.71017   3.4346   -2.70629 
 H-HC-0.1060           4.58817   1.90253  -2.82568 
 H-HC-0.1060           5.24477   3.2262   -1.87372 
 
 The following ModRedundant input section has been read:
 D    *    8    9    * F                                                       
 Stoichiometry    C20H36N4O4
 Framework group  C1[X(C20H36N4O4)]
 Deg. of freedom   186
 Full point group                 C1      NOp   1
 Largest Abelian subgroup         C1      NOp   1
 Largest concise Abelian subgroup C1      NOp   1
                         Standard orientation:                         
 ---------------------------------------------------------------------
 Center     Atomic      Atomic             Coordinates (Angstroms)
 Number     Number       Type             X           Y           Z
 ---------------------------------------------------------------------
      1          6    20001001       -1.790547   -0.499664    2.215749
      2          7    20001014       -2.554666   -0.477163    0.985765
      3          6    20001002       -3.446978    0.516061    0.763515
      4          8    20001024       -3.485041    1.511129    1.432946
      5          6    90000001       -4.332948    0.372079   -0.486969
      6          6    90000002       -5.560016    1.280042   -0.353736
      7          6    90000002       -3.514189    0.706930   -1.763335
      8          6    90000002       -2.903658    2.112220   -1.911829
      9          6    90000002       -1.557649    2.384871   -1.211430
     10          6    20001004       -1.345862    1.578668    0.048514
     11          6    20001004       -0.652898    0.459477    0.182568
     12          6    90000002        0.097516   -0.290061   -0.892060
     13          6    90000002        1.622406   -0.081678   -0.862871
     14          6    90000002        2.260337   -0.557944    0.449048
     15          6    90000002        3.808096   -0.571064    0.543478
     16          6    90000002        4.183229   -1.024110    1.963856
     17          7    20001014        4.323745   -1.530317   -0.423718
     18          6    20001002        5.661739   -1.650194   -0.665500
     19          6    20001001        6.016411   -2.389492   -1.935323
     20          8    20001024        6.498817   -1.205368    0.069737
     21          6    20001002        4.335787    0.830988    0.163322
     22          8    20001024        4.487032    1.129098   -0.990881
     23          7    20001014        4.515100    1.720602    1.163529
     24          6    20001001        5.055216    3.035021    0.882847
     25          7    20001014       -4.744520   -1.028000   -0.665346
     26          6    20001002       -5.468523   -1.727100    0.254845
     27          6    20001001       -6.088827   -3.011035   -0.255892
     28          8    20001024       -5.596972   -1.362176    1.389072
     29          1    20001035       -2.422823   -0.666194    3.080298
     30          1    20001035       -1.276035    0.441504    2.343035
     31          1    20001035       -1.057289   -1.293835    2.152668
     32          1    20001029       -2.742985   -1.349395    0.549837
     33          1    20001034       -5.270568    2.308495   -0.200646
     34          1    20001034       -6.160039    1.211097   -1.256208
     35          1    20001034       -6.160699    0.979159    0.492181
     36          1    20001034       -4.199533    0.566221   -2.596236
     37          1    20001034       -2.736624   -0.041497   -1.879654
     38          1    20001034       -2.755486    2.272009   -2.975845
     39          1    20001034       -3.618433    2.863031   -1.591277
     40          1    20001034       -1.467613    3.437680   -0.977230
     41          1    20001034       -0.773952    2.170030   -1.929411
     42          1    20001033       -1.816941    1.977021    0.932547
     43          1    20001033       -0.607045    0.023040    1.168053
     44          1    20001034       -0.264976   -0.004938   -1.872249
     45          1    20001034       -0.117153   -1.352811   -0.786841
     46          1    20001034        2.044647   -0.611189   -1.712402
     47          1    20001034        1.843310    0.965134   -1.024791
     48          1    20001034        1.928507   -1.571281    0.664848
     49          1    20001034        1.897200    0.066175    1.257106
     50          1    20001034        3.860573   -2.050104    2.097312
     51          1    20001034        3.678036   -0.424510    2.713952
     52          1    20001034        5.249694   -0.982461    2.127123
     53          1    20001029        3.742714   -1.689916   -1.214694
     54          1    20001034        7.028843   -2.755997   -1.859724
     55          1    20001034        5.958786   -1.694599   -2.767746
     56          1    20001034        5.339797   -3.214543   -2.129923
     57          1    20001029        4.613905    1.377132    2.089583
     58          1    20001035        5.006011    3.628858    1.786096
     59          1    20001035        4.467606    3.514247    0.113637
     60          1    20001035        6.085318    2.983440    0.545235
     61          1    20001029       -4.809323   -1.339635   -1.608867
     62          1    20001034       -6.288560   -3.660500    0.583915
     63          1    20001034       -5.449868   -3.520674   -0.968316
     64          1    20001034       -7.029159   -2.781620   -0.746755
 ---------------------------------------------------------------------
 Rotational constants (GHZ):      0.3465468      0.0672835      0.0638807
 Standard basis: 6-31G(d) (6D, 7F)
 There are   492 symmetry adapted basis functions of A   symmetry.
 Integral buffers will be    131072 words long.
 Raffenetti 1 integral format.
 Two-electron integral symmetry is turned on.
   492 basis functions,   928 primitive gaussians,   492 cartesian basis functions
   108 alpha electrons      108 beta electrons
       nuclear repulsion energy      2847.1974185974 Hartrees.
 NAtoms=   64 NActive=   64 NUniq=   64 SFac= 7.50D-01 NAtFMM=   80 NAOKFM=F Big=T
 One-electron integrals computed using PRISM.
 NBasis=   492 RedAO= T  NBF=   492
 NBsUse=   492 1.00D-06 NBFU=   492
 Harris functional with IExCor=  205 diagonalized for initial guess.
 ExpMin= 1.61D-01 ExpMax= 5.48D+03 ExpMxC= 8.25D+02 IAcc=1 IRadAn=         1 AccDes= 0.00D+00
 HarFok:  IExCor=  205 AccDes= 0.00D+00 IRadAn=         1 IDoV= 1
 ScaDFX=  1.000000  1.000000  1.000000  1.000000
 FoFCou: FMM=F IPFlag=           0 FMFlag=      100000 FMFlg1=           1
         NFxFlg=           0 DoJE=T BraDBF=F KetDBF=T FulRan=T
         Omega=  0.000000  0.000000  1.000000  0.000000  0.000000 ICntrl=     500 IOpCl=  0
         NMat0=    1 NMatS0=    1 NMatT0=    0 NMatD0=    1 NMtDS0=    0 NMtDT0=    0
         I1Cent=           4 NGrid=           0.
 Petite list used in FoFCou.
 Initial guess orbital symmetries:
       Occupied  (A) (A) (A) (A) (A) (A) (A) (A) (A) (A) (A) (A)
                 (A) (A) (A) (A) (A) (A) (A) (A) (A) (A) (A) (A)
                 (A) (A) (A) (A) (A) (A) (A) (A) (A) (A) (A) (A)
                 (A) (A) (A) (A) (A) (A) (A) (A) (A) (A) (A) (A)
                 (A) (A) (A) (A) (A) (A) (A) (A) (A) (A) (A) (A)
                 (A) (A) (A) (A) (A) (A) (A) (A) (A) (A) (A) (A)
                 (A) (A) (A) (A) (A) (A) (A) (A) (A) (A) (A) (A)
                 (A) (A) (A) (A) (A) (A) (A) (A) (A) (A) (A) (A)
                 (A) (A) (A) (A) (A) (A) (A) (A) (A) (A) (A) (A)
       Virtual   (A) (A) (A) (A) (A) (A) (A) (A) (A) (A) (A) (A)
                 (A) (A) (A) (A) (A) (A) (A) (A) (A) (A) (A) (A)
                 (A) (A) (A) (A) (A) (A) (A) (A) (A) (A) (A) (A)
                 (A) (A) (A) (A) (A) (A) (A) (A) (A) (A) (A) (A)
                 (A) (A) (A) (A) (A) (A) (A) (A) (A) (A) (A) (A)
                 (A) (A) (A) (A) (A) (A) (A) (A) (A) (A) (A) (A)
                 (A) (A) (A) (A) (A) (A) (A) (A) (A) (A) (A) (A)
                 (A) (A) (A) (A) (A) (A) (A) (A) (A) (A) (A) (A)
                 (A) (A) (A) (A) (A) (A) (A) (A) (A) (A) (A) (A)
                 (A) (A) (A) (A) (A) (A) (A) (A) (A) (A) (A) (A)
                 (A) (A) (A) (A) (A) (A) (A) (A) (A) (A) (A) (A)
                 (A) (A) (A) (A) (A) (A) (A) (A) (A) (A) (A) (A)
                 (A) (A) (A) (A) (A) (A) (A) (A) (A) (A) (A) (A)
                 (A) (A) (A) (A) (A) (A) (A) (A) (A) (A) (A) (A)
                 (A) (A) (A) (A) (A) (A) (A) (A) (A) (A) (A) (A)
                 (A) (A) (A) (A) (A) (A) (A) (A) (A) (A) (A) (A)
                 (A) (A) (A) (A) (A) (A) (A) (A) (A) (A) (A) (A)
                 (A) (A) (A) (A) (A) (A) (A) (A) (A) (A) (A) (A)
                 (A) (A) (A) (A) (A) (A) (A) (A) (A) (A) (A) (A)
                 (A) (A) (A) (A) (A) (A) (A) (A) (A) (A) (A) (A)
                 (A) (A) (A) (A) (A) (A) (A) (A) (A) (A) (A) (A)
                 (A) (A) (A) (A) (A) (A) (A) (A) (A) (A) (A) (A)
                 (A) (A) (A) (A) (A) (A) (A) (A) (A) (A) (A) (A)
                 (A) (A) (A) (A) (A) (A) (A) (A) (A) (A) (A) (A)
                 (A) (A) (A) (A) (A) (A) (A) (A) (A) (A) (A) (A)
                 (A) (A) (A) (A) (A) (A) (A) (A) (A) (A) (A) (A)
                 (A) (A) (A) (A) (A) (A) (A) (A) (A) (A) (A) (A)
                 (A) (A) (A) (A) (A) (A) (A) (A) (A) (A) (A) (A)
                 (A) (A) (A) (A) (A) (A) (A) (A) (A) (A) (A) (A)
                 (A) (A) (A) (A) (A) (A) (A) (A) (A) (A) (A) (A)
                 (A) (A) (A) (A) (A) (A) (A) (A) (A) (A) (A) (A)
                 (A) (A) (A) (A) (A) (A) (A) (A) (A) (A) (A) (A)
 The electronic state of the initial guess is 1-A.
 Requested convergence on RMS density matrix=1.00D-08 within 128 cycles.
 Requested convergence on MAX density matrix=1.00D-06.
 Requested convergence on             energy=1.00D-06.
 No special actions if energy rises.
 Integral accuracy reduced to 1.0D-05 until final iterations.
 Initial convergence to 1.0D-05 achieved.  Increase integral accuracy.
 SCF Done:  E(RHF) =  -1295.49303490     A.U. after   15 cycles
             Convg  =    0.6112D-08             -V/T =  2.0007

 **********************************************************************

            Population analysis using the SCF density.

 **********************************************************************

 Orbital symmetries:
       Occupied  (A) (A) (A) (A) (A) (A) (A) (A) (A) (A) (A) (A)
                 (A) (A) (A) (A) (A) (A) (A) (A) (A) (A) (A) (A)
                 (A) (A) (A) (A) (A) (A) (A) (A) (A) (A) (A) (A)
                 (A) (A) (A) (A) (A) (A) (A) (A) (A) (A) (A) (A)
                 (A) (A) (A) (A) (A) (A) (A) (A) (A) (A) (A) (A)
                 (A) (A) (A) (A) (A) (A) (A) (A) (A) (A) (A) (A)
                 (A) (A) (A) (A) (A) (A) (A) (A) (A) (A) (A) (A)
                 (A) (A) (A) (A) (A) (A) (A) (A) (A) (A) (A) (A)
                 (A) (A) (A) (A) (A) (A) (A) (A) (A) (A) (A) (A)
       Virtual   (A) (A) (A) (A) (A) (A) (A) (A) (A) (A) (A) (A)
                 (A) (A) (A) (A) (A) (A) (A) (A) (A) (A) (A) (A)
                 (A) (A) (A) (A) (A) (A) (A) (A) (A) (A) (A) (A)
                 (A) (A) (A) (A) (A) (A) (A) (A) (A) (A) (A) (A)
                 (A) (A) (A) (A) (A) (A) (A) (A) (A) (A) (A) (A)
                 (A) (A) (A) (A) (A) (A) (A) (A) (A) (A) (A) (A)
                 (A) (A) (A) (A) (A) (A) (A) (A) (A) (A) (A) (A)
                 (A) (A) (A) (A) (A) (A) (A) (A) (A) (A) (A) (A)
                 (A) (A) (A) (A) (A) (A) (A) (A) (A) (A) (A) (A)
                 (A) (A) (A) (A) (A) (A) (A) (A) (A) (A) (A) (A)
                 (A) (A) (A) (A) (A) (A) (A) (A) (A) (A) (A) (A)
                 (A) (A) (A) (A) (A) (A) (A) (A) (A) (A) (A) (A)
                 (A) (A) (A) (A) (A) (A) (A) (A) (A) (A) (A) (A)
                 (A) (A) (A) (A) (A) (A) (A) (A) (A) (A) (A) (A)
                 (A) (A) (A) (A) (A) (A) (A) (A) (A) (A) (A) (A)
                 (A) (A) (A) (A) (A) (A) (A) (A) (A) (A) (A) (A)
                 (A) (A) (A) (A) (A) (A) (A) (A) (A) (A) (A) (A)
                 (A) (A) (A) (A) (A) (A) (A) (A) (A) (A) (A) (A)
                 (A) (A) (A) (A) (A) (A) (A) (A) (A) (A) (A) (A)
                 (A) (A) (A) (A) (A) (A) (A) (A) (A) (A) (A) (A)
                 (A) (A) (A) (A) (A) (A) (A) (A) (A) (A) (A) (A)
                 (A) (A) (A) (A) (A) (A) (A) (A) (A) (A) (A) (A)
                 (A) (A) (A) (A) (A) (A) (A) (A) (A) (A) (A) (A)
                 (A) (A) (A) (A) (A) (A) (A) (A) (A) (A) (A) (A)
                 (A) (A) (A) (A) (A) (A) (A) (A) (A) (A) (A) (A)
                 (A) (A) (A) (A) (A) (A) (A) (A) (A) (A) (A) (A)
                 (A) (A) (A) (A) (A) (A) (A) (A) (A) (A) (A) (A)
                 (A) (A) (A) (A) (A) (A) (A) (A) (A) (A) (A) (A)
                 (A) (A) (A) (A) (A) (A) (A) (A) (A) (A) (A) (A)
                 (A) (A) (A) (A) (A) (A) (A) (A) (A) (A) (A) (A)
                 (A) (A) (A) (A) (A) (A) (A) (A) (A) (A) (A) (A)
                 (A) (A) (A) (A) (A) (A) (A) (A) (A) (A) (A) (A)
 The electronic state is 1-A.
 Alpha  occ. eigenvalues --  -20.53715 -20.52404 -20.52081 -20.51559 -15.59733
 Alpha  occ. eigenvalues --  -15.57850 -15.57540 -15.56925 -11.36050 -11.34292
 Alpha  occ. eigenvalues --  -11.34173 -11.33649 -11.29214 -11.28542 -11.25744
 Alpha  occ. eigenvalues --  -11.24945 -11.24460 -11.24085 -11.23348 -11.22592
 Alpha  occ. eigenvalues --  -11.22278 -11.22147 -11.22014 -11.21803 -11.21102
 Alpha  occ. eigenvalues --  -11.21011 -11.19447 -11.17748  -1.40764  -1.39759
 Alpha  occ. eigenvalues --   -1.39370  -1.38086  -1.25680  -1.23559  -1.23192
 Alpha  occ. eigenvalues --   -1.22565  -1.10174  -1.09247  -1.06948  -1.03966
 Alpha  occ. eigenvalues --   -1.00955  -0.99237  -0.98682  -0.97605  -0.95002
 Alpha  occ. eigenvalues --   -0.94523  -0.92188  -0.87014  -0.85525  -0.83013
 Alpha  occ. eigenvalues --   -0.81517  -0.79485  -0.78762  -0.77458  -0.76851
 Alpha  occ. eigenvalues --   -0.72080  -0.71526  -0.71321  -0.69882  -0.68230
 Alpha  occ. eigenvalues --   -0.67856  -0.66215  -0.64682  -0.64277  -0.63676
 Alpha  occ. eigenvalues --   -0.62898  -0.62441  -0.61825  -0.61470  -0.61160
 Alpha  occ. eigenvalues --   -0.60412  -0.60125  -0.59323  -0.58879  -0.58612
 Alpha  occ. eigenvalues --   -0.57892  -0.57308  -0.56701  -0.56474  -0.56256
 Alpha  occ. eigenvalues --   -0.56063  -0.55176  -0.54986  -0.54702  -0.53629
 Alpha  occ. eigenvalues --   -0.52941  -0.52661  -0.52327  -0.51930  -0.51549
 Alpha  occ. eigenvalues --   -0.50565  -0.50072  -0.49719  -0.48649  -0.48567
 Alpha  occ. eigenvalues --   -0.47962  -0.46135  -0.45999  -0.43346  -0.42692
 Alpha  occ. eigenvalues --   -0.41757  -0.41461  -0.41086  -0.39644  -0.39263
 Alpha  occ. eigenvalues --   -0.38791  -0.38229  -0.29220
 Alpha virt. eigenvalues --    0.16029   0.18782   0.19428   0.19922   0.21053
 Alpha virt. eigenvalues --    0.21597   0.22699   0.22951   0.23507   0.24234
 Alpha virt. eigenvalues --    0.25445   0.26014   0.26866   0.27045   0.27331
 Alpha virt. eigenvalues --    0.27937   0.28099   0.28611   0.29319   0.29408
 Alpha virt. eigenvalues --    0.30278   0.30559   0.30878   0.31182   0.31761
 Alpha virt. eigenvalues --    0.31934   0.32505   0.32907   0.33387   0.33707
 Alpha virt. eigenvalues --    0.34145   0.34321   0.34521   0.34579   0.35621
 Alpha virt. eigenvalues --    0.36403   0.36610   0.37024   0.37681   0.38518
 Alpha virt. eigenvalues --    0.38829   0.39794   0.40147   0.40869   0.41322
 Alpha virt. eigenvalues --    0.41552   0.42120   0.43200   0.43633   0.44309
 Alpha virt. eigenvalues --    0.44724   0.45614   0.47448   0.47547   0.48655
 Alpha virt. eigenvalues --    0.49073   0.50071   0.50741   0.52481   0.53333
 Alpha virt. eigenvalues --    0.55748   0.56177   0.57854   0.60001   0.60313
 Alpha virt. eigenvalues --    0.62003   0.63665   0.64523   0.69645   0.70582
 Alpha virt. eigenvalues --    0.70953   0.71676   0.72098   0.73163   0.73255
 Alpha virt. eigenvalues --    0.73705   0.74472   0.75901   0.76465   0.77001
 Alpha virt. eigenvalues --    0.77605   0.77840   0.78423   0.79066   0.79839
 Alpha virt. eigenvalues --    0.80839   0.81324   0.81544   0.82945   0.84099
 Alpha virt. eigenvalues --    0.84629   0.85035   0.85977   0.86309   0.87599
 Alpha virt. eigenvalues --    0.88082   0.90344   0.90971   0.91683   0.91872
 Alpha virt. eigenvalues --    0.92651   0.92810   0.94149   0.94387   0.95394
 Alpha virt. eigenvalues --    0.96582   0.97194   0.97389   0.97936   0.98700
 Alpha virt. eigenvalues --    0.99531   1.00033   1.00548   1.00832   1.01934
 Alpha virt. eigenvalues --    1.02196   1.03394   1.03652   1.04258   1.05694
 Alpha virt. eigenvalues --    1.06115   1.06329   1.07206   1.07551   1.08573
 Alpha virt. eigenvalues --    1.09571   1.10184   1.10790   1.11567   1.12656
 Alpha virt. eigenvalues --    1.13243   1.13368   1.13946   1.14379   1.14458
 Alpha virt. eigenvalues --    1.14845   1.14993   1.15389   1.15923   1.16261
 Alpha virt. eigenvalues --    1.17319   1.17442   1.17835   1.18174   1.18606
 Alpha virt. eigenvalues --    1.18815   1.18932   1.19283   1.19885   1.20147
 Alpha virt. eigenvalues --    1.20788   1.21275   1.21493   1.21932   1.22183
 Alpha virt. eigenvalues --    1.22589   1.22729   1.22965   1.23616   1.24219
 Alpha virt. eigenvalues --    1.24531   1.25909   1.26319   1.27036   1.27194
 Alpha virt. eigenvalues --    1.27919   1.28313   1.29535   1.30085   1.30645
 Alpha virt. eigenvalues --    1.31330   1.31880   1.33572   1.33865   1.35422
 Alpha virt. eigenvalues --    1.35988   1.37736   1.38528   1.39120   1.39558
 Alpha virt. eigenvalues --    1.40451   1.41101   1.41879   1.42247   1.44233
 Alpha virt. eigenvalues --    1.45787   1.47793   1.48793   1.49741   1.52055
 Alpha virt. eigenvalues --    1.52473   1.53649   1.54689   1.57521   1.58075
 Alpha virt. eigenvalues --    1.59396   1.61135   1.61422   1.61909   1.62984
 Alpha virt. eigenvalues --    1.63675   1.65888   1.67183   1.69930   1.71546
 Alpha virt. eigenvalues --    1.71929   1.73556   1.74621   1.74836   1.75595
 Alpha virt. eigenvalues --    1.77004   1.78470   1.79501   1.80618   1.84325
 Alpha virt. eigenvalues --    1.85044   1.86209   1.88119   1.89750   1.90903
 Alpha virt. eigenvalues --    1.91823   1.92500   1.94908   1.97021   1.98819
 Alpha virt. eigenvalues --    1.99396   1.99954   2.02564   2.03996   2.05022
 Alpha virt. eigenvalues --    2.06473   2.07143   2.07696   2.08406   2.10305
 Alpha virt. eigenvalues --    2.10925   2.11898   2.12717   2.12989   2.13540
 Alpha virt. eigenvalues --    2.14342   2.15598   2.16252   2.16824   2.17145
 Alpha virt. eigenvalues --    2.17787   2.18547   2.19332   2.19644   2.21520
 Alpha virt. eigenvalues --    2.21872   2.22657   2.23564   2.24214   2.25060
 Alpha virt. eigenvalues --    2.26082   2.26548   2.27714   2.28274   2.29532
 Alpha virt. eigenvalues --    2.30356   2.30773   2.31346   2.32292   2.32911
 Alpha virt. eigenvalues --    2.34153   2.34700   2.35584   2.36595   2.37416
 Alpha virt. eigenvalues --    2.37840   2.38273   2.39372   2.39595   2.40825
 Alpha virt. eigenvalues --    2.42093   2.42928   2.44116   2.45849   2.47475
 Alpha virt. eigenvalues --    2.47703   2.49285   2.51298   2.51559   2.53041
 Alpha virt. eigenvalues --    2.54882   2.55487   2.55626   2.56976   2.57418
 Alpha virt. eigenvalues --    2.58750   2.59261   2.60314   2.62455   2.62875
 Alpha virt. eigenvalues --    2.63241   2.64236   2.65095   2.65360   2.65985
 Alpha virt. eigenvalues --    2.67718   2.69323   2.70013   2.70636   2.71730
 Alpha virt. eigenvalues --    2.72516   2.73816   2.75740   2.76322   2.77659
 Alpha virt. eigenvalues --    2.78168   2.78817   2.79365   2.80185   2.83086
 Alpha virt. eigenvalues --    2.83634   2.84336   2.85560   2.86520   2.88244
 Alpha virt. eigenvalues --    2.88811   2.90591   2.92104   2.95921   2.97573
 Alpha virt. eigenvalues --    2.98322   2.98648   2.99540   3.00088   3.03400
 Alpha virt. eigenvalues --    3.05326   3.05866   3.06326   3.08273   3.10574
 Alpha virt. eigenvalues --    3.11604   3.13046   3.13459   3.15936   3.17335
 Alpha virt. eigenvalues --    3.18425   3.20691   3.26017   3.29686   3.30853
 Alpha virt. eigenvalues --    3.34462   3.35649   3.38795   3.40606   3.42753
 Alpha virt. eigenvalues --    3.43612   3.45112   3.53577   3.55750   3.57592
 Alpha virt. eigenvalues --    3.60625   4.38512   4.43348   4.48294   4.49277
 Alpha virt. eigenvalues --    4.51917   4.57596   4.59055   4.63606   4.64518
 Alpha virt. eigenvalues --    4.65025   4.67041   4.70093   4.71664   4.73083
 Alpha virt. eigenvalues --    4.76896   4.80974   4.83970   4.85943   4.89496
 Alpha virt. eigenvalues --    4.90991   4.92147   4.94475   4.99730   5.02641
 Alpha virt. eigenvalues --    5.10622   5.15616   5.23972   5.31273
          Condensed to atoms (all electrons):
 Mulliken atomic charges:
              1
     1  C   -0.358579
     2  N   -0.789139
     3  C    0.851434
     4  O   -0.634397
     5  C    0.113886
     6  C   -0.471826
     7  C   -0.338675
     8  C   -0.321491
     9  C   -0.331071
    10  C   -0.309050
    11  C   -0.112001
    12  C   -0.345850
    13  C   -0.306151
    14  C   -0.329767
    15  C    0.092114
    16  C   -0.509738
    17  N   -0.788176
    18  C    0.767460
    19  C   -0.595517
    20  O   -0.613681
    21  C    0.821436
    22  O   -0.640223
    23  N   -0.805264
    24  C   -0.275266
    25  N   -0.843254
    26  C    0.744722
    27  C   -0.588667
    28  O   -0.591072
    29  H    0.207297
    30  H    0.228609
    31  H    0.186044
    32  H    0.395361
    33  H    0.197769
    34  H    0.145697
    35  H    0.212431
    36  H    0.161532
    37  H    0.183253
    38  H    0.163606
    39  H    0.176261
    40  H    0.175069
    41  H    0.163466
    42  H    0.266125
    43  H    0.175635
    44  H    0.164470
    45  H    0.135493
    46  H    0.146558
    47  H    0.201222
    48  H    0.167354
    49  H    0.187074
    50  H    0.182133
    51  H    0.149160
    52  H    0.226713
    53  H    0.389452
    54  H    0.211205
    55  H    0.209154
    56  H    0.175460
    57  H    0.395569
    58  H    0.165697
    59  H    0.198975
    60  H    0.184223
    61  H    0.382746
    62  H    0.218548
    63  H    0.176832
    64  H    0.201606
 Sum of Mulliken atomic charges =   0.00000
 Mulliken charges with hydrogens summed into heavy atoms:
              1
     1  C    0.263372
     2  N   -0.393777
     3  C    0.851434
     4  O   -0.634397
     5  C    0.113886
     6  C    0.084071
     7  C    0.006111
     8  C    0.018376
     9  C    0.007464
    10  C   -0.042925
    11  C    0.063634
    12  C   -0.045886
    13  C    0.041629
    14  C    0.024661
    15  C    0.092114
    16  C    0.048268
    17  N   -0.398724
    18  C    0.767460
    19  C    0.000303
    20  O   -0.613681
    21  C    0.821436
    22  O   -0.640223
    23  N   -0.409695
    24  C    0.273629
    25  N   -0.460509
    26  C    0.744722
    27  C    0.008318
    28  O   -0.591072
 Sum of Mulliken charges with hydrogens summed into heavy atoms =   0.00000
 Electronic spatial extent (au):  <R**2>=          17014.1032
 Charge=              0.0000 electrons
 Dipole moment (field-independent basis, Debye):
    X=             -2.9425    Y=             -4.2326    Z=             -3.1174  Tot=              6.0243
 Quadrupole moment (field-independent basis, Debye-Ang):
   XX=           -200.6717   YY=           -162.1833   ZZ=           -167.4048
   XY=             13.4435   XZ=             30.4799   YZ=              8.7018
 Traceless Quadrupole moment (field-independent basis, Debye-Ang):
   XX=            -23.9184   YY=             14.5700   ZZ=              9.3484
   XY=             13.4435   XZ=             30.4799   YZ=              8.7018
 Octapole moment (field-independent basis, Debye-Ang**2):
  XXX=           -233.3257  YYY=            -17.4701  ZZZ=              4.6337  XYY=             11.0761
  XXY=            -41.3438  XXZ=           -121.6617  XZZ=             52.0493  YZZ=            -10.9619
  YYZ=             -9.5989  XYZ=             39.8740
 Hexadecapole moment (field-independent basis, Debye-Ang**3):
 XXXX=         -19558.3281 YYYY=          -2595.8653 ZZZZ=          -1613.6715 XXXY=            535.7395
 XXXZ=            597.2795 YYYX=            182.8042 YYYZ=             33.3597 ZZZX=             49.4387
 ZZZY=             39.4792 XXYY=          -3116.4032 XXZZ=          -3229.3172 YYZZ=           -725.3025
 XXYZ=            358.7048 YYXZ=             30.0194 ZZXY=             -3.8008
 N-N= 2.847197418597D+03 E-N=-8.726942723533D+03  KE= 1.294606133573D+03
 1\1\GINC-MOSURA\SP\RHF\6-31G(d)\C20H36N4O4\MARIE\05-Dec-2019\0\\#SP HF
 /6-31G* Geom=(ModRedundant)\\paramfit run\\0,1\C,0,0.,0.,0.\N,0,1.4481
 87,0.,0.\C,0,2.1232,0.47592,1.072365\O,0,1.590179,0.696732,2.124447\C,
 0,3.650505,0.594143,0.921539\C,0,4.198902,1.549248,1.986845\C,0,4.3077
 51,-0.809116,1.023981\C,0,4.133566,-1.622781,2.319066\C,0,2.832729,-2.
 433298,2.484965\C,0,1.638351,-1.829024,1.784543\C,0,1.141471,-2.163212
 ,0.604634\C,0,1.646588,-3.231669,-0.335053\C,0,0.820444,-4.530453,-0.3
 20522\C,0,-0.637801,-4.309678,-0.744428\C,0,-1.534864,-5.558537,-0.945
 12\C,0,-2.946203,-5.064465,-1.302141\N,0,-1.000379,-6.340671,-2.051521
 \C,0,-1.502867,-7.570793,-2.363551\C,0,-0.622997,-8.40978,-3.261735\O,
 0,-2.562086,-7.963213,-1.959566\C,0,-1.468632,-6.422311,0.334815\O,0,-
 0.563508,-7.195695,0.497774\N,0,-2.398925,-6.195648,1.287264\C,0,-2.42
 5097,-7.004285,2.488773\N,0,3.997412,1.070275,-0.425452\C,0,3.587019,2
 .267163,-0.934086\C,0,4.328148,2.727659,-2.172145\O,0,2.697134,2.90542
 5,-0.447397\H,0,-0.403259,1.006147,0.\H,0,-0.36496,-0.516002,0.875939\
 H,0,-0.345658,-0.522086,-0.883346\H,0,1.904244,0.070913,-0.879357\H,0,
 3.932135,1.22176,2.980082\H,0,5.28092,1.595925,1.9075\H,0,3.792711,2.5
 40594,1.848395\H,0,5.374584,-0.64325,0.891407\H,0,3.984642,-1.403324,0
 .174983\H,0,4.961565,-2.324757,2.354635\H,0,4.250121,-0.975721,3.18225
 9\H,0,2.602668,-2.555097,3.535489\H,0,3.025683,-3.429827,2.103478\H,0,
 1.142267,-1.038132,2.323528\H,0,0.273497,-1.620876,0.263674\H,0,2.6747
 84,-3.481213,-0.102659\H,0,1.653978,-2.827497,-1.346578\H,0,1.310956,-
 5.241534,-0.979411\H,0,0.857675,-4.966742,0.668971\H,0,-0.661744,-3.75
 76,-1.681535\H,0,-1.122804,-3.684827,-0.003697\H,0,-2.905247,-4.560801
 ,-2.260904\H,0,-3.307404,-4.346471,-0.573168\H,0,-3.646931,-5.882098,-
 1.380855\H,0,-0.024487,-6.237654,-2.211942\H,0,-1.227098,-9.162506,-3.
 74498\H,0,0.125204,-8.903979,-2.649291\H,0,-0.11353,-7.811053,-4.00896
 5\H,0,-3.242918,-5.74343,1.025566\H,0,-3.157061,-6.588887,3.168916\H,0
 ,-1.454295,-6.986205,2.961893\H,0,-2.682677,-8.036414,2.274025\H,0,4.8
 2812,0.684785,-0.816437\H,0,3.710173,3.434604,-2.706288\H,0,4.588171,1
 .902533,-2.825678\H,0,5.244771,3.226201,-1.873716\\Version=EM64L-G09Re
 vA.02\State=1-A\HF=-1295.4930349\RMSD=6.112e-09\Dipole=1.6266525,0.601
 1781,-1.6155764\Quadrupole=20.0414141,-28.5440037,8.5025896,0.6278257,
 -10.9527855,-11.4674227\PG=C01 [X(C20H36N4O4)]\\@


 A CHEMICAL PHYSICIST MAKES PRECISE MEASUREMENTS ON IMPURE COMPOUNDS.
 A THEORETICAL PHYSICAL CHEMIST MAKES IMPRECISE
     MEASUREMENTS ON PURE COMPOUNDS.
 AN EXPERIMENTAL PHYSICAL CHEMIST MAKES IMPRECISE
     MEASUREMENTS ON IMPURE COMPOUNDS.
 Job cpu time:  0 days  0 hours  7 minutes 28.6 seconds.
 File lengths (MBytes):  RWF=    132 Int=      0 D2E=      0 Chk=     10 Scr=      1
 Normal termination of Gaussian 09 at Thu Dec  5 17:28:48 2019.
