 Entering Gaussian System, Link 0=g09
 Input=CHI3_-100.gau
 Output=CHI3_-100.log
 Initial command:
 /home/marie/Utilities//g09/l1.exe /tmp/g09/Gau-9189.inp -scrdir=/tmp/g09/
 Entering Link 1 = /home/marie/Utilities//g09/l1.exe PID=      9191.
  
 Copyright (c) 1988,1990,1992,1993,1995,1998,2003,2009, Gaussian, Inc.
                  All Rights Reserved.
  
 This is part of the Gaussian(R) 09 program.  It is based on
 the Gaussian(R) 03 system (copyright 2003, Gaussian, Inc.),
 the Gaussian(R) 98 system (copyright 1998, Gaussian, Inc.),
 the Gaussian(R) 94 system (copyright 1995, Gaussian, Inc.),
 the Gaussian 92(TM) system (copyright 1992, Gaussian, Inc.),
 the Gaussian 90(TM) system (copyright 1990, Gaussian, Inc.),
 the Gaussian 88(TM) system (copyright 1988, Gaussian, Inc.),
 the Gaussian 86(TM) system (copyright 1986, Carnegie Mellon
 University), and the Gaussian 82(TM) system (copyright 1983,
 Carnegie Mellon University). Gaussian is a federally registered
 trademark of Gaussian, Inc.
  
 This software contains proprietary and confidential information,
 including trade secrets, belonging to Gaussian, Inc.
  
 This software is provided under written license and may be
 used, copied, transmitted, or stored only in accord with that
 written license.
  
 The following legend is applicable only to US Government
 contracts under FAR:
  
                    RESTRICTED RIGHTS LEGEND
  
 Use, reproduction and disclosure by the US Government is
 subject to restrictions as set forth in subparagraphs (a)
 and (c) of the Commercial Computer Software - Restricted
 Rights clause in FAR 52.227-19.
  
 Gaussian, Inc.
 340 Quinnipiac St., Bldg. 40, Wallingford CT 06492
  
  
 ---------------------------------------------------------------
 Warning -- This program may not be used in any manner that
 competes with the business of Gaussian, Inc. or will provide
 assistance to any competitor of Gaussian, Inc.  The licensee
 of this program is prohibited from giving any competitor of
 Gaussian, Inc. access to this program.  By using this program,
 the user acknowledges that Gaussian, Inc. is engaged in the
 business of creating and licensing software in the field of
 computational chemistry and represents and warrants to the
 licensee that it is not a competitor of Gaussian, Inc. and that
 it will not use this program in any manner prohibited above.
 ---------------------------------------------------------------
  

 Cite this work as:
 Gaussian 09, Revision A.02,
 M. J. Frisch, G. W. Trucks, H. B. Schlegel, G. E. Scuseria, 
 M. A. Robb, J. R. Cheeseman, G. Scalmani, V. Barone, B. Mennucci, 
 G. A. Petersson, H. Nakatsuji, M. Caricato, X. Li, H. P. Hratchian, 
 A. F. Izmaylov, J. Bloino, G. Zheng, J. L. Sonnenberg, M. Hada, 
 M. Ehara, K. Toyota, R. Fukuda, J. Hasegawa, M. Ishida, T. Nakajima, 
 Y. Honda, O. Kitao, H. Nakai, T. Vreven, J. A. Montgomery, Jr., 
 J. E. Peralta, F. Ogliaro, M. Bearpark, J. J. Heyd, E. Brothers, 
 K. N. Kudin, V. N. Staroverov, R. Kobayashi, J. Normand, 
 K. Raghavachari, A. Rendell, J. C. Burant, S. S. Iyengar, J. Tomasi, 
 M. Cossi, N. Rega, J. M. Millam, M. Klene, J. E. Knox, J. B. Cross, 
 V. Bakken, C. Adamo, J. Jaramillo, R. Gomperts, R. E. Stratmann, 
 O. Yazyev, A. J. Austin, R. Cammi, C. Pomelli, J. W. Ochterski, 
 R. L. Martin, K. Morokuma, V. G. Zakrzewski, G. A. Voth, 
 P. Salvador, J. J. Dannenberg, S. Dapprich, A. D. Daniels, 
 O. Farkas, J. B. Foresman, J. V. Ortiz, J. Cioslowski, 
 and D. J. Fox, Gaussian, Inc., Wallingford CT, 2009.
 
 ******************************************
 Gaussian 09:  EM64L-G09RevA.02 11-Jun-2009
                 5-Dec-2019 
 ******************************************
 %chk=CHI3_-100
 %NoSave
 ---------------------------------
 #SP HF/6-31G* Geom=(ModRedundant)
 ---------------------------------
 1/18=120,38=1/1;
 2/12=2,17=6,18=5,40=1/2;
 3/5=1,6=6,7=1,11=9,16=1,25=1,30=1/1,2,3;
 4//1;
 5/5=2,38=5/2;
 6/7=2,8=2,9=2,10=2,28=1/1;
 99/5=1,9=1/99;
 ------------
 paramfit run
 ------------
 Symbolic Z-matrix:
 Charge =  0 Multiplicity = 1
 C-CT--0.3208          0.        0.        0. 
 N-N--0.5622           1.44819   0.        0. 
 C-C-0.8053            2.1232    0.47592   1.07237 
 O-O--0.6151           1.59018   0.69673   2.12445 
 C-CX-0.0839           3.65051   0.59414   0.92154 
 C-CU--0.3230          4.1989    1.54925   1.98685 
 C-CU--0.0657          4.30775  -0.80912   1.02398 
 C-CU--0.0109          4.13357  -1.62278   2.31907 
 C-CU-0.0816           2.83273  -2.4333    2.48497 
 C-CM--0.2354          1.79798  -1.76313   3.35815 
 C-CM--0.2653          0.75148  -1.05351   2.96823 
 C-CU-0.1214           0.33285  -0.73683   1.55253 
 C-CU--0.0354         -0.84089  -1.58693   1.03365 
 C-CU--0.0984         -2.12013  -1.39757   1.85984 
 C-CU-0.1300          -3.4252   -2.05638   1.3427 
 C-CU--0.3561         -4.52997  -1.77041   2.37283 
 N-N--0.7186          -3.7799   -1.44569   0.06882 
 C-C-0.8537           -4.80615  -1.92698  -0.6916 
 C-CT--0.3868         -4.81283  -1.45304  -2.12691 
 O-O--0.6323          -5.64343  -2.67001  -0.26031 
 C-C-0.7903           -3.15513  -3.5588    1.1008 
 O-O--0.6136          -2.6547   -3.92657   0.07208 
 N-N--0.5650          -3.4064   -4.4082    2.12028 
 C-CT--0.3231         -3.22362  -5.83426   1.9438 
 N-N--0.7191           3.99741   1.07028  -0.42545 
 C-C-0.8539            3.58702   2.26716  -0.93409 
 C-CT--0.3903          4.32815   2.72766  -2.17214 
 O-O--0.6290           2.69713   2.90543  -0.4474 
 H-H1-0.1459          -0.40326   1.00615   0. 
 H-H1-0.1459          -0.36496  -0.516     0.87594 
 H-H1-0.1459          -0.34566  -0.52209  -0.88335 
 H-H-0.3572            1.90424   0.07091  -0.87936 
 H-HC-0.0997           3.93214   1.22176   2.98008 
 H-HC-0.0997           5.28092   1.59593   1.9075 
 H-HC-0.0997           3.79271   2.54059   1.8484 
 H-HC-0.0347           5.37458  -0.64325   0.89141 
 H-HC-0.0347           3.98464  -1.40332   0.17498 
 H-HC-0.0243           4.96157  -2.32476   2.35464 
 H-HC-0.0243           4.25012  -0.97572   3.18226 
 H-HC-0.0171           3.05463  -3.41308   2.88763 
 H-HC-0.0171           2.43178  -2.60188   1.49166 
 H-HA-0.1313           1.94082  -1.89086   4.419 
 H-HA-0.1359           0.11306  -0.65193   3.73954 
 H-HC-0.0092           1.16906  -0.86433   0.8758 
 H-HC-0.0092           0.05839   0.31603   1.5002 
 H-HC-0.0318          -1.00895  -1.31891  -0.00573 
 H-HC-0.0318          -0.55245  -2.62982   1.0293 
 H-HC-0.0435          -2.32954  -0.33497   1.96265 
 H-HC-0.0435          -1.94595  -1.77765   2.85961 
 H-HC-0.1066          -4.71521  -0.70282   2.39554 
 H-HC-0.1066          -4.22394  -2.06831   3.37032 
 H-HC-0.1066          -5.45344  -2.2671    2.11549 
 H-H-0.3529           -3.01812  -1.07237  -0.44987 
 H-HC-0.1047          -5.80817  -1.56148  -2.53016 
 H-HC-0.1047          -4.13466  -2.07763  -2.70059 
 H-HC-0.1047          -4.48911  -0.42187  -2.21786 
 H-H-0.3615           -4.02639  -4.11505   2.83792 
 H-H1-0.1469          -3.35823  -6.32089   2.90087 
 H-H1-0.1469          -2.22419  -6.03233   1.58526 
 H-H1-0.1469          -3.9313   -6.24585   1.23139 
 H-H-0.3570            4.82812   0.68479  -0.81644 
 H-HC-0.1060           3.71017   3.4346   -2.70629 
 H-HC-0.1060           4.58817   1.90253  -2.82568 
 H-HC-0.1060           5.24477   3.2262   -1.87372 
 
 The following ModRedundant input section has been read:
 D    *    8    9    * F                                                       
 Stoichiometry    C20H36N4O4
 Framework group  C1[X(C20H36N4O4)]
 Deg. of freedom   186
 Full point group                 C1      NOp   1
 Largest Abelian subgroup         C1      NOp   1
 Largest concise Abelian subgroup C1      NOp   1
                         Standard orientation:                         
 ---------------------------------------------------------------------
 Center     Atomic      Atomic             Coordinates (Angstroms)
 Number     Number       Type             X           Y           Z
 ---------------------------------------------------------------------
      1          6    20001001        0.508089    1.226324    0.076705
      2          7    20001014        1.794406    0.750942   -0.388748
      3          6    20001002        2.584070    0.023930    0.435869
      4          8    20001024        2.184253   -0.443062    1.466311
      5          6    90000001        3.998848   -0.296424   -0.079067
      6          6    90000002        4.896015   -0.692242    1.098329
      7          6    90000002        3.936327   -1.420419   -1.148801
      8          6    90000002        3.374383   -2.797820   -0.753045
      9          6    90000002        1.842838   -2.973828   -0.758470
     10          6    20001004        1.208176   -2.877939    0.609114
     11          6    20001004        0.614367   -1.826685    1.150422
     12          6    90000002        0.424979   -0.461071    0.534805
     13          6    90000002       -0.993828   -0.199141   -0.001799
     14          6    90000002       -2.064947   -0.273865    1.094575
     15          6    90000002       -3.512713    0.143439    0.727863
     16          6    90000002       -4.389909   -0.081062    1.970271
     17          7    20001014       -3.514197    1.558385    0.382238
     18          6    20001002       -4.626499    2.168295   -0.121597
     19          6    20001001       -4.377337    3.506445   -0.778923
     20          8    20001024       -5.722323    1.685183   -0.051499
     21          6    20001002       -3.955565   -0.659308   -0.516405
     22          8    20001024       -3.652723   -0.286023   -1.617712
     23          7    20001014       -4.595131   -1.830116   -0.306304
     24          6    20001001       -5.082206   -2.606949   -1.427684
     25          7    20001014        4.560761    0.862057   -0.788719
     26          6    20001002        4.758567    2.080975   -0.210112
     27          6    20001001        5.660603    3.020728   -0.982972
     28          8    20001024        4.248099    2.394358    0.827844
     29          1    20001035        0.611379    1.955948    0.871645
     30          1    20001035       -0.075766    0.396215    0.446510
     31          1    20001035       -0.015175    1.678933   -0.756178
     32          1    20001029        2.255123    1.289453   -1.084472
     33          1    20001034        4.482758   -1.528868    1.640738
     34          1    20001034        5.880585   -0.961418    0.727649
     35          1    20001034        4.993550    0.131287    1.790581
     36          1    20001034        4.963475   -1.574749   -1.471864
     37          1    20001034        3.399109   -1.043262   -2.013341
     38          1    20001034        3.786933   -3.512447   -1.459251
     39          1    20001034        3.752001   -3.086230    0.222454
     40          1    20001034        1.579973   -3.924140   -1.204758
     41          1    20001034        1.435493   -2.212431   -1.414350
     42          1    20001033        1.248585   -3.780125    1.197793
     43          1    20001033        0.211219   -1.945463    2.143964
     44          1    20001034        1.127029   -0.314009   -0.276961
     45          1    20001034        0.665471    0.292459    1.283771
     46          1    20001034       -0.992861    0.778821   -0.475047
     47          1    20001034       -1.215840   -0.909686   -0.787080
     48          1    20001034       -1.766287    0.350093    1.934225
     49          1    20001034       -2.110837   -1.291260    1.464911
     50          1    20001034       -4.065387    0.596782    2.751164
     51          1    20001034       -4.280942   -1.091276    2.351024
     52          1    20001034       -5.431213    0.116327    1.764206
     53          1    20001029       -2.652705    1.911036    0.032694
     54          1    20001034       -5.300560    4.065096   -0.804045
     55          1    20001034       -4.046360    3.334592   -1.798749
     56          1    20001034       -3.614459    4.079113   -0.262734
     57          1    20001029       -5.030223   -1.979882    0.573227
     58          1    20001035       -5.450123   -3.554852   -1.057499
     59          1    20001035       -4.275920   -2.789156   -2.122905
     60          1    20001035       -5.880847   -2.095515   -1.955282
     61          1    20001029        5.132086    0.647825   -1.575637
     62          1    20001034        5.449984    4.035699   -0.678921
     63          1    20001034        5.530290    2.925772   -2.055144
     64          1    20001034        6.695587    2.796496   -0.745632
 ---------------------------------------------------------------------
 Rotational constants (GHZ):      0.3086918      0.0865337      0.0747818
 Standard basis: 6-31G(d) (6D, 7F)
 There are   492 symmetry adapted basis functions of A   symmetry.
 Integral buffers will be    131072 words long.
 Raffenetti 1 integral format.
 Two-electron integral symmetry is turned on.
   492 basis functions,   928 primitive gaussians,   492 cartesian basis functions
   108 alpha electrons      108 beta electrons
       nuclear repulsion energy      2963.3351896602 Hartrees.
 NAtoms=   64 NActive=   64 NUniq=   64 SFac= 7.50D-01 NAtFMM=   80 NAOKFM=F Big=T
 One-electron integrals computed using PRISM.
 NBasis=   492 RedAO= T  NBF=   492
 NBsUse=   492 1.00D-06 NBFU=   492
 Harris functional with IExCor=  205 diagonalized for initial guess.
 ExpMin= 1.61D-01 ExpMax= 5.48D+03 ExpMxC= 8.25D+02 IAcc=1 IRadAn=         1 AccDes= 0.00D+00
 HarFok:  IExCor=  205 AccDes= 0.00D+00 IRadAn=         1 IDoV= 1
 ScaDFX=  1.000000  1.000000  1.000000  1.000000
 FoFCou: FMM=F IPFlag=           0 FMFlag=      100000 FMFlg1=           1
         NFxFlg=           0 DoJE=T BraDBF=F KetDBF=T FulRan=T
         Omega=  0.000000  0.000000  1.000000  0.000000  0.000000 ICntrl=     500 IOpCl=  0
         NMat0=    1 NMatS0=    1 NMatT0=    0 NMatD0=    1 NMtDS0=    0 NMtDT0=    0
         I1Cent=           4 NGrid=           0.
 Petite list used in FoFCou.
 Initial guess orbital symmetries:
       Occupied  (A) (A) (A) (A) (A) (A) (A) (A) (A) (A) (A) (A)
                 (A) (A) (A) (A) (A) (A) (A) (A) (A) (A) (A) (A)
                 (A) (A) (A) (A) (A) (A) (A) (A) (A) (A) (A) (A)
                 (A) (A) (A) (A) (A) (A) (A) (A) (A) (A) (A) (A)
                 (A) (A) (A) (A) (A) (A) (A) (A) (A) (A) (A) (A)
                 (A) (A) (A) (A) (A) (A) (A) (A) (A) (A) (A) (A)
                 (A) (A) (A) (A) (A) (A) (A) (A) (A) (A) (A) (A)
                 (A) (A) (A) (A) (A) (A) (A) (A) (A) (A) (A) (A)
                 (A) (A) (A) (A) (A) (A) (A) (A) (A) (A) (A) (A)
       Virtual   (A) (A) (A) (A) (A) (A) (A) (A) (A) (A) (A) (A)
                 (A) (A) (A) (A) (A) (A) (A) (A) (A) (A) (A) (A)
                 (A) (A) (A) (A) (A) (A) (A) (A) (A) (A) (A) (A)
                 (A) (A) (A) (A) (A) (A) (A) (A) (A) (A) (A) (A)
                 (A) (A) (A) (A) (A) (A) (A) (A) (A) (A) (A) (A)
                 (A) (A) (A) (A) (A) (A) (A) (A) (A) (A) (A) (A)
                 (A) (A) (A) (A) (A) (A) (A) (A) (A) (A) (A) (A)
                 (A) (A) (A) (A) (A) (A) (A) (A) (A) (A) (A) (A)
                 (A) (A) (A) (A) (A) (A) (A) (A) (A) (A) (A) (A)
                 (A) (A) (A) (A) (A) (A) (A) (A) (A) (A) (A) (A)
                 (A) (A) (A) (A) (A) (A) (A) (A) (A) (A) (A) (A)
                 (A) (A) (A) (A) (A) (A) (A) (A) (A) (A) (A) (A)
                 (A) (A) (A) (A) (A) (A) (A) (A) (A) (A) (A) (A)
                 (A) (A) (A) (A) (A) (A) (A) (A) (A) (A) (A) (A)
                 (A) (A) (A) (A) (A) (A) (A) (A) (A) (A) (A) (A)
                 (A) (A) (A) (A) (A) (A) (A) (A) (A) (A) (A) (A)
                 (A) (A) (A) (A) (A) (A) (A) (A) (A) (A) (A) (A)
                 (A) (A) (A) (A) (A) (A) (A) (A) (A) (A) (A) (A)
                 (A) (A) (A) (A) (A) (A) (A) (A) (A) (A) (A) (A)
                 (A) (A) (A) (A) (A) (A) (A) (A) (A) (A) (A) (A)
                 (A) (A) (A) (A) (A) (A) (A) (A) (A) (A) (A) (A)
                 (A) (A) (A) (A) (A) (A) (A) (A) (A) (A) (A) (A)
                 (A) (A) (A) (A) (A) (A) (A) (A) (A) (A) (A) (A)
                 (A) (A) (A) (A) (A) (A) (A) (A) (A) (A) (A) (A)
                 (A) (A) (A) (A) (A) (A) (A) (A) (A) (A) (A) (A)
                 (A) (A) (A) (A) (A) (A) (A) (A) (A) (A) (A) (A)
                 (A) (A) (A) (A) (A) (A) (A) (A) (A) (A) (A) (A)
                 (A) (A) (A) (A) (A) (A) (A) (A) (A) (A) (A) (A)
                 (A) (A) (A) (A) (A) (A) (A) (A) (A) (A) (A) (A)
                 (A) (A) (A) (A) (A) (A) (A) (A) (A) (A) (A) (A)
                 (A) (A) (A) (A) (A) (A) (A) (A) (A) (A) (A) (A)
                 (A) (A) (A) (A) (A) (A) (A) (A) (A) (A) (A) (A)
 The electronic state of the initial guess is 1-A.
 Requested convergence on RMS density matrix=1.00D-08 within 128 cycles.
 Requested convergence on MAX density matrix=1.00D-06.
 Requested convergence on             energy=1.00D-06.
 No special actions if energy rises.
 Integral accuracy reduced to 1.0D-05 until final iterations.
 Initial convergence to 1.0D-05 achieved.  Increase integral accuracy.
 SCF Done:  E(RHF) =  -1294.81038079     A.U. after   15 cycles
             Convg  =    0.9550D-08             -V/T =  1.9984

 **********************************************************************

            Population analysis using the SCF density.

 **********************************************************************

 Orbital symmetries:
       Occupied  (A) (A) (A) (A) (A) (A) (A) (A) (A) (A) (A) (A)
                 (A) (A) (A) (A) (A) (A) (A) (A) (A) (A) (A) (A)
                 (A) (A) (A) (A) (A) (A) (A) (A) (A) (A) (A) (A)
                 (A) (A) (A) (A) (A) (A) (A) (A) (A) (A) (A) (A)
                 (A) (A) (A) (A) (A) (A) (A) (A) (A) (A) (A) (A)
                 (A) (A) (A) (A) (A) (A) (A) (A) (A) (A) (A) (A)
                 (A) (A) (A) (A) (A) (A) (A) (A) (A) (A) (A) (A)
                 (A) (A) (A) (A) (A) (A) (A) (A) (A) (A) (A) (A)
                 (A) (A) (A) (A) (A) (A) (A) (A) (A) (A) (A) (A)
       Virtual   (A) (A) (A) (A) (A) (A) (A) (A) (A) (A) (A) (A)
                 (A) (A) (A) (A) (A) (A) (A) (A) (A) (A) (A) (A)
                 (A) (A) (A) (A) (A) (A) (A) (A) (A) (A) (A) (A)
                 (A) (A) (A) (A) (A) (A) (A) (A) (A) (A) (A) (A)
                 (A) (A) (A) (A) (A) (A) (A) (A) (A) (A) (A) (A)
                 (A) (A) (A) (A) (A) (A) (A) (A) (A) (A) (A) (A)
                 (A) (A) (A) (A) (A) (A) (A) (A) (A) (A) (A) (A)
                 (A) (A) (A) (A) (A) (A) (A) (A) (A) (A) (A) (A)
                 (A) (A) (A) (A) (A) (A) (A) (A) (A) (A) (A) (A)
                 (A) (A) (A) (A) (A) (A) (A) (A) (A) (A) (A) (A)
                 (A) (A) (A) (A) (A) (A) (A) (A) (A) (A) (A) (A)
                 (A) (A) (A) (A) (A) (A) (A) (A) (A) (A) (A) (A)
                 (A) (A) (A) (A) (A) (A) (A) (A) (A) (A) (A) (A)
                 (A) (A) (A) (A) (A) (A) (A) (A) (A) (A) (A) (A)
                 (A) (A) (A) (A) (A) (A) (A) (A) (A) (A) (A) (A)
                 (A) (A) (A) (A) (A) (A) (A) (A) (A) (A) (A) (A)
                 (A) (A) (A) (A) (A) (A) (A) (A) (A) (A) (A) (A)
                 (A) (A) (A) (A) (A) (A) (A) (A) (A) (A) (A) (A)
                 (A) (A) (A) (A) (A) (A) (A) (A) (A) (A) (A) (A)
                 (A) (A) (A) (A) (A) (A) (A) (A) (A) (A) (A) (A)
                 (A) (A) (A) (A) (A) (A) (A) (A) (A) (A) (A) (A)
                 (A) (A) (A) (A) (A) (A) (A) (A) (A) (A) (A) (A)
                 (A) (A) (A) (A) (A) (A) (A) (A) (A) (A) (A) (A)
                 (A) (A) (A) (A) (A) (A) (A) (A) (A) (A) (A) (A)
                 (A) (A) (A) (A) (A) (A) (A) (A) (A) (A) (A) (A)
                 (A) (A) (A) (A) (A) (A) (A) (A) (A) (A) (A) (A)
                 (A) (A) (A) (A) (A) (A) (A) (A) (A) (A) (A) (A)
                 (A) (A) (A) (A) (A) (A) (A) (A) (A) (A) (A) (A)
                 (A) (A) (A) (A) (A) (A) (A) (A) (A) (A) (A) (A)
                 (A) (A) (A) (A) (A) (A) (A) (A) (A) (A) (A) (A)
                 (A) (A) (A) (A) (A) (A) (A) (A) (A) (A) (A) (A)
                 (A) (A) (A) (A) (A) (A) (A) (A) (A) (A) (A) (A)
 The electronic state is 1-A.
 Alpha  occ. eigenvalues --  -20.54038 -20.53706 -20.51866 -20.51442 -15.60108
 Alpha  occ. eigenvalues --  -15.58686 -15.57715 -15.57345 -11.36338 -11.35293
 Alpha  occ. eigenvalues --  -11.34074 -11.33511 -11.30004 -11.28314 -11.24886
 Alpha  occ. eigenvalues --  -11.24674 -11.24588 -11.23087 -11.22526 -11.22344
 Alpha  occ. eigenvalues --  -11.21465 -11.21464 -11.21344 -11.21260 -11.18537
 Alpha  occ. eigenvalues --  -11.18480 -11.18452 -11.18130  -1.44933  -1.40836
 Alpha  occ. eigenvalues --   -1.39196  -1.37924  -1.31900  -1.25974  -1.23411
 Alpha  occ. eigenvalues --   -1.22435  -1.20957  -1.10096  -1.07322  -1.05957
 Alpha  occ. eigenvalues --   -1.01607  -0.99519  -0.99063  -0.97835  -0.95005
 Alpha  occ. eigenvalues --   -0.94556  -0.91115  -0.89818  -0.87196  -0.83906
 Alpha  occ. eigenvalues --   -0.82290  -0.80573  -0.79258  -0.78461  -0.77100
 Alpha  occ. eigenvalues --   -0.76651  -0.73403  -0.72294  -0.71127  -0.69565
 Alpha  occ. eigenvalues --   -0.68940  -0.66962  -0.66468  -0.64500  -0.64235
 Alpha  occ. eigenvalues --   -0.63659  -0.63083  -0.62890  -0.61559  -0.61311
 Alpha  occ. eigenvalues --   -0.60994  -0.60597  -0.59856  -0.58971  -0.58634
 Alpha  occ. eigenvalues --   -0.58241  -0.57962  -0.57272  -0.56848  -0.55862
 Alpha  occ. eigenvalues --   -0.55050  -0.54962  -0.54441  -0.54338  -0.53340
 Alpha  occ. eigenvalues --   -0.53101  -0.52577  -0.52370  -0.51550  -0.51353
 Alpha  occ. eigenvalues --   -0.50787  -0.49788  -0.49387  -0.48434  -0.48067
 Alpha  occ. eigenvalues --   -0.46362  -0.45747  -0.44518  -0.43071  -0.41552
 Alpha  occ. eigenvalues --   -0.41344  -0.40900  -0.38892  -0.38639  -0.38000
 Alpha  occ. eigenvalues --   -0.35552  -0.29998  -0.24625
 Alpha virt. eigenvalues --    0.16325   0.18502   0.19684   0.19750   0.20217
 Alpha virt. eigenvalues --    0.21702   0.22766   0.23281   0.23931   0.24710
 Alpha virt. eigenvalues --    0.25375   0.26278   0.26544   0.26812   0.27409
 Alpha virt. eigenvalues --    0.27741   0.28169   0.28847   0.29203   0.29448
 Alpha virt. eigenvalues --    0.29749   0.30141   0.31332   0.31475   0.31571
 Alpha virt. eigenvalues --    0.32229   0.32903   0.33329   0.33653   0.34199
 Alpha virt. eigenvalues --    0.34438   0.34546   0.34794   0.34925   0.35961
 Alpha virt. eigenvalues --    0.36848   0.37233   0.37540   0.38069   0.38651
 Alpha virt. eigenvalues --    0.39527   0.39852   0.40259   0.41282   0.42026
 Alpha virt. eigenvalues --    0.42205   0.43201   0.43850   0.44570   0.45052
 Alpha virt. eigenvalues --    0.45532   0.46899   0.47812   0.48257   0.49190
 Alpha virt. eigenvalues --    0.50738   0.51162   0.51949   0.52928   0.54391
 Alpha virt. eigenvalues --    0.57416   0.57910   0.58852   0.59525   0.60900
 Alpha virt. eigenvalues --    0.63669   0.64343   0.65393   0.69217   0.70410
 Alpha virt. eigenvalues --    0.70749   0.71883   0.72534   0.73595   0.74554
 Alpha virt. eigenvalues --    0.75309   0.75979   0.76489   0.77170   0.77470
 Alpha virt. eigenvalues --    0.78280   0.78755   0.78974   0.80513   0.80666
 Alpha virt. eigenvalues --    0.81109   0.82151   0.82703   0.83279   0.84037
 Alpha virt. eigenvalues --    0.84466   0.85312   0.86380   0.87132   0.88807
 Alpha virt. eigenvalues --    0.89380   0.90238   0.91024   0.91473   0.92375
 Alpha virt. eigenvalues --    0.92732   0.93221   0.94766   0.95456   0.95966
 Alpha virt. eigenvalues --    0.96208   0.97302   0.98274   0.98794   0.99342
 Alpha virt. eigenvalues --    1.00021   1.00288   1.01401   1.01808   1.02186
 Alpha virt. eigenvalues --    1.02546   1.04418   1.04580   1.06008   1.06256
 Alpha virt. eigenvalues --    1.06803   1.07663   1.07834   1.08897   1.10698
 Alpha virt. eigenvalues --    1.11520   1.12203   1.12454   1.12753   1.13000
 Alpha virt. eigenvalues --    1.13626   1.14126   1.14330   1.14560   1.15185
 Alpha virt. eigenvalues --    1.15570   1.15583   1.16297   1.16626   1.17229
 Alpha virt. eigenvalues --    1.17759   1.18062   1.18355   1.18580   1.18899
 Alpha virt. eigenvalues --    1.19495   1.19681   1.20221   1.20359   1.20962
 Alpha virt. eigenvalues --    1.21148   1.21639   1.22069   1.22280   1.22588
 Alpha virt. eigenvalues --    1.23109   1.23475   1.24158   1.24367   1.25212
 Alpha virt. eigenvalues --    1.25575   1.26132   1.26936   1.27393   1.28686
 Alpha virt. eigenvalues --    1.29047   1.29596   1.30446   1.31395   1.31785
 Alpha virt. eigenvalues --    1.32560   1.33631   1.34881   1.36641   1.38293
 Alpha virt. eigenvalues --    1.38769   1.38901   1.39194   1.40887   1.42052
 Alpha virt. eigenvalues --    1.42811   1.44652   1.44949   1.46634   1.48180
 Alpha virt. eigenvalues --    1.48802   1.50567   1.51448   1.52637   1.53184
 Alpha virt. eigenvalues --    1.55011   1.55909   1.57258   1.58426   1.60593
 Alpha virt. eigenvalues --    1.61321   1.61669   1.63914   1.65495   1.66201
 Alpha virt. eigenvalues --    1.66881   1.68674   1.70223   1.71447   1.72508
 Alpha virt. eigenvalues --    1.73419   1.74267   1.74724   1.75488   1.77842
 Alpha virt. eigenvalues --    1.78918   1.80228   1.81945   1.83496   1.84626
 Alpha virt. eigenvalues --    1.87057   1.88866   1.90390   1.91487   1.93466
 Alpha virt. eigenvalues --    1.94113   1.94752   1.95868   1.97670   1.98501
 Alpha virt. eigenvalues --    1.99913   2.00340   2.03092   2.04031   2.05791
 Alpha virt. eigenvalues --    2.06590   2.07413   2.07953   2.09380   2.10644
 Alpha virt. eigenvalues --    2.11595   2.12258   2.13550   2.13843   2.14758
 Alpha virt. eigenvalues --    2.15146   2.16477   2.17135   2.17259   2.18305
 Alpha virt. eigenvalues --    2.18458   2.19789   2.20152   2.20960   2.21792
 Alpha virt. eigenvalues --    2.22983   2.23140   2.23965   2.24616   2.25556
 Alpha virt. eigenvalues --    2.26187   2.28386   2.29417   2.29729   2.30611
 Alpha virt. eigenvalues --    2.31598   2.32177   2.32899   2.34215   2.34705
 Alpha virt. eigenvalues --    2.35490   2.35966   2.37061   2.38377   2.38702
 Alpha virt. eigenvalues --    2.39962   2.40860   2.41334   2.42027   2.43704
 Alpha virt. eigenvalues --    2.44022   2.45572   2.48896   2.48948   2.50133
 Alpha virt. eigenvalues --    2.50624   2.51253   2.53451   2.54547   2.56005
 Alpha virt. eigenvalues --    2.56205   2.56437   2.57120   2.58027   2.58833
 Alpha virt. eigenvalues --    2.60155   2.60874   2.62617   2.63260   2.64224
 Alpha virt. eigenvalues --    2.65324   2.65701   2.66401   2.68009   2.68480
 Alpha virt. eigenvalues --    2.70209   2.70814   2.72612   2.73673   2.73966
 Alpha virt. eigenvalues --    2.75065   2.76373   2.77233   2.77972   2.79459
 Alpha virt. eigenvalues --    2.80574   2.80977   2.83057   2.85141   2.86437
 Alpha virt. eigenvalues --    2.87789   2.89195   2.89537   2.90610   2.93806
 Alpha virt. eigenvalues --    2.94615   2.96183   2.96236   2.98100   2.98683
 Alpha virt. eigenvalues --    2.98873   3.02723   3.03628   3.04584   3.05463
 Alpha virt. eigenvalues --    3.06193   3.07305   3.09165   3.10478   3.12885
 Alpha virt. eigenvalues --    3.13780   3.13995   3.15280   3.18617   3.20733
 Alpha virt. eigenvalues --    3.23980   3.29149   3.29602   3.31198   3.34754
 Alpha virt. eigenvalues --    3.36693   3.39071   3.41007   3.43114   3.45847
 Alpha virt. eigenvalues --    3.49149   3.52858   3.55515   3.56021   3.57867
 Alpha virt. eigenvalues --    3.61990   4.38932   4.43151   4.48021   4.50169
 Alpha virt. eigenvalues --    4.52616   4.56116   4.60405   4.63565   4.64437
 Alpha virt. eigenvalues --    4.67125   4.69161   4.69701   4.73400   4.76018
 Alpha virt. eigenvalues --    4.79645   4.81125   4.87477   4.90210   4.91149
 Alpha virt. eigenvalues --    4.91763   4.95321   4.95962   5.03236   5.08184
 Alpha virt. eigenvalues --    5.12572   5.21591   5.25266   5.32940
          Condensed to atoms (all electrons):
 Mulliken atomic charges:
              1
     1  C   -0.423042
     2  N   -0.846771
     3  C    0.774505
     4  O   -0.562646
     5  C    0.117352
     6  C   -0.472963
     7  C   -0.339607
     8  C   -0.312560
     9  C   -0.367304
    10  C   -0.216358
    11  C   -0.042357
    12  C   -0.636919
    13  C   -0.432617
    14  C   -0.334013
    15  C    0.089896
    16  C   -0.510478
    17  N   -0.789173
    18  C    0.768019
    19  C   -0.596279
    20  O   -0.614167
    21  C    0.824389
    22  O   -0.642814
    23  N   -0.805176
    24  C   -0.274703
    25  N   -0.842654
    26  C    0.747665
    27  C   -0.589153
    28  O   -0.591700
    29  H    0.185191
    30  H    0.394867
    31  H    0.107823
    32  H    0.398925
    33  H    0.202886
    34  H    0.148583
    35  H    0.212639
    36  H    0.165958
    37  H    0.177164
    38  H    0.163921
    39  H    0.183563
    40  H    0.175541
    41  H    0.163452
    42  H    0.151423
    43  H    0.158120
    44  H    0.372095
    45  H    0.263746
    46  H    0.206501
    47  H    0.228262
    48  H    0.185882
    49  H    0.195655
    50  H    0.185534
    51  H    0.150921
    52  H    0.225385
    53  H    0.392471
    54  H    0.210797
    55  H    0.207542
    56  H    0.178467
    57  H    0.396235
    58  H    0.165215
    59  H    0.197459
    60  H    0.183951
    61  H    0.384526
    62  H    0.220511
    63  H    0.178939
    64  H    0.201479
 Sum of Mulliken atomic charges =   0.00000
 Mulliken charges with hydrogens summed into heavy atoms:
              1
     1  C   -0.130027
     2  N   -0.447846
     3  C    0.774505
     4  O   -0.562646
     5  C    0.117352
     6  C    0.091144
     7  C    0.003515
     8  C    0.034924
     9  C   -0.028311
    10  C   -0.064934
    11  C    0.115762
    12  C    0.393790
    13  C    0.002146
    14  C    0.047524
    15  C    0.089896
    16  C    0.051362
    17  N   -0.396702
    18  C    0.768019
    19  C    0.000527
    20  O   -0.614167
    21  C    0.824389
    22  O   -0.642814
    23  N   -0.408941
    24  C    0.271922
    25  N   -0.458129
    26  C    0.747665
    27  C    0.011776
    28  O   -0.591700
 Sum of Mulliken charges with hydrogens summed into heavy atoms =   0.00000
 Electronic spatial extent (au):  <R**2>=          14500.2968
 Charge=              0.0000 electrons
 Dipole moment (field-independent basis, Debye):
    X=              5.3814    Y=             -0.6364    Z=             -2.8346  Tot=              6.1155
 Quadrupole moment (field-independent basis, Debye-Ang):
   XX=           -163.2779   YY=           -164.5563   ZZ=           -176.0406
   XY=             11.7368   XZ=            -27.8297   YZ=             -6.4231
 Traceless Quadrupole moment (field-independent basis, Debye-Ang):
   XX=              4.6804   YY=              3.4020   ZZ=             -8.0824
   XY=             11.7368   XZ=            -27.8297   YZ=             -6.4231
 Octapole moment (field-independent basis, Debye-Ang**2):
  XXX=            294.7278  YYY=             27.0906  ZZZ=             -4.9136  XYY=            -45.0920
  XXY=            -67.2080  XXZ=            -56.2044  XZZ=              0.9681  YZZ=              3.1572
  YYZ=            -31.7076  XYZ=            -19.0801
 Hexadecapole moment (field-independent basis, Debye-Ang**3):
 XXXX=         -14171.7039 YYYY=          -3547.7246 ZZZZ=          -1182.6141 XXXY=            836.0196
 XXXZ=           -425.7746 YYYX=             12.7557 YYYZ=            -37.9539 ZZZX=            -34.2366
 ZZZY=             -0.9619 XXYY=          -2716.7266 XXZZ=          -2555.7825 YYZZ=           -793.1447
 XXYZ=           -148.5410 YYXZ=            -22.0432 ZZXY=             22.8996
 N-N= 2.963335189660D+03 E-N=-8.959781912238D+03  KE= 1.296941797730D+03
 1\1\GINC-MOSURA\SP\RHF\6-31G(d)\C20H36N4O4\MARIE\05-Dec-2019\0\\#SP HF
 /6-31G* Geom=(ModRedundant)\\paramfit run\\0,1\C,0,0.,0.,0.\N,0,1.4481
 87,0.,0.\C,0,2.1232,0.47592,1.072365\O,0,1.590179,0.696732,2.124447\C,
 0,3.650505,0.594143,0.921539\C,0,4.198902,1.549248,1.986845\C,0,4.3077
 51,-0.809116,1.023981\C,0,4.133566,-1.622781,2.319066\C,0,2.832729,-2.
 433298,2.484965\C,0,1.797982,-1.763132,3.358151\C,0,0.751483,-1.053512
 ,2.968234\C,0,0.332849,-0.736832,1.552531\C,0,-0.840886,-1.586932,1.03
 3647\C,0,-2.120132,-1.397567,1.859835\C,0,-3.425196,-2.056375,1.342703
 \C,0,-4.529965,-1.770407,2.372829\N,0,-3.779899,-1.445692,0.068818\C,0
 ,-4.806149,-1.926981,-0.691596\C,0,-4.812831,-1.453042,-2.126915\O,0,-
 5.643431,-2.670009,-0.260308\C,0,-3.155126,-3.558795,1.100796\O,0,-2.6
 54704,-3.92657,0.072083\N,0,-3.406402,-4.408196,2.120285\C,0,-3.223615
 ,-5.834255,1.943795\N,0,3.997412,1.070275,-0.425452\C,0,3.587019,2.267
 163,-0.934086\C,0,4.328148,2.727659,-2.172145\O,0,2.697134,2.905425,-0
 .447397\H,0,-0.403259,1.006147,0.\H,0,-0.36496,-0.516002,0.875939\H,0,
 -0.345658,-0.522086,-0.883346\H,0,1.904244,0.070913,-0.879357\H,0,3.93
 2135,1.22176,2.980082\H,0,5.28092,1.595925,1.9075\H,0,3.792711,2.54059
 4,1.848395\H,0,5.374584,-0.64325,0.891407\H,0,3.984642,-1.403324,0.174
 983\H,0,4.961565,-2.324757,2.354635\H,0,4.250121,-0.975721,3.182259\H,
 0,3.054634,-3.413084,2.887633\H,0,2.431781,-2.601875,1.491659\H,0,1.94
 0823,-1.890864,4.418998\H,0,0.113058,-0.651929,3.739536\H,0,1.169058,-
 0.864331,0.875801\H,0,0.058385,0.316033,1.500198\H,0,-1.008949,-1.3189
 12,-0.005725\H,0,-0.552447,-2.629819,1.029295\H,0,-2.329542,-0.334971,
 1.962645\H,0,-1.94595,-1.777651,2.859608\H,0,-4.715207,-0.702816,2.395
 539\H,0,-4.22394,-2.068314,3.370316\H,0,-5.453442,-2.2671,2.115488\H,0
 ,-3.018117,-1.072372,-0.449865\H,0,-5.80817,-1.561479,-2.530158\H,0,-4
 .13466,-2.077626,-2.70059\H,0,-4.489113,-0.421869,-2.217864\H,0,-4.026
 385,-4.11505,2.837918\H,0,-3.358229,-6.320888,2.900868\H,0,-2.224194,-
 6.032332,1.585257\H,0,-3.9313,-6.245851,1.231388\H,0,4.82812,0.684785,
 -0.816437\H,0,3.710173,3.434604,-2.706288\H,0,4.588171,1.902533,-2.825
 678\H,0,5.244771,3.226201,-1.873716\\Version=EM64L-G09RevA.02\State=1-
 A\HF=-1294.8103808\RMSD=9.550e-09\Dipole=2.3211613,0.0850001,-0.627579
 2\Quadrupole=8.1145244,-12.5525591,4.4380348,-1.6660548,-16.4785589,-1
 2.58916\PG=C01 [X(C20H36N4O4)]\\@


 IT IS A PROFOUNDLY ERRONEOUS TRUISM ... THAT WE SHOULD CULTIVATE
 THE HABIT OF THINKING OF WHAT WE ARE DOING.
 THE PRECISE OPPOSITE IS THE CASE.
 CIVILIZATION ADVANCES BY EXTENDING THE NUMBER OF IMPORTANT OPERATIONS
 WHICH WE CAN PERFORM WITHOUT THINKING ABOUT THEM.

                                    -- ALFRED NORTH WHITEHEAD
 Job cpu time:  0 days  0 hours  8 minutes 40.1 seconds.
 File lengths (MBytes):  RWF=    132 Int=      0 D2E=      0 Chk=     10 Scr=      1
 Normal termination of Gaussian 09 at Thu Dec  5 18:02:16 2019.
