 Entering Gaussian System, Link 0=g09
 Input=CHI3_-160.gau
 Output=CHI3_-160.log
 Initial command:
 /home/marie/Utilities//g09/l1.exe /tmp/g09/Gau-6410.inp -scrdir=/tmp/g09/
 Entering Link 1 = /home/marie/Utilities//g09/l1.exe PID=      6412.
  
 Copyright (c) 1988,1990,1992,1993,1995,1998,2003,2009, Gaussian, Inc.
                  All Rights Reserved.
  
 This is part of the Gaussian(R) 09 program.  It is based on
 the Gaussian(R) 03 system (copyright 2003, Gaussian, Inc.),
 the Gaussian(R) 98 system (copyright 1998, Gaussian, Inc.),
 the Gaussian(R) 94 system (copyright 1995, Gaussian, Inc.),
 the Gaussian 92(TM) system (copyright 1992, Gaussian, Inc.),
 the Gaussian 90(TM) system (copyright 1990, Gaussian, Inc.),
 the Gaussian 88(TM) system (copyright 1988, Gaussian, Inc.),
 the Gaussian 86(TM) system (copyright 1986, Carnegie Mellon
 University), and the Gaussian 82(TM) system (copyright 1983,
 Carnegie Mellon University). Gaussian is a federally registered
 trademark of Gaussian, Inc.
  
 This software contains proprietary and confidential information,
 including trade secrets, belonging to Gaussian, Inc.
  
 This software is provided under written license and may be
 used, copied, transmitted, or stored only in accord with that
 written license.
  
 The following legend is applicable only to US Government
 contracts under FAR:
  
                    RESTRICTED RIGHTS LEGEND
  
 Use, reproduction and disclosure by the US Government is
 subject to restrictions as set forth in subparagraphs (a)
 and (c) of the Commercial Computer Software - Restricted
 Rights clause in FAR 52.227-19.
  
 Gaussian, Inc.
 340 Quinnipiac St., Bldg. 40, Wallingford CT 06492
  
  
 ---------------------------------------------------------------
 Warning -- This program may not be used in any manner that
 competes with the business of Gaussian, Inc. or will provide
 assistance to any competitor of Gaussian, Inc.  The licensee
 of this program is prohibited from giving any competitor of
 Gaussian, Inc. access to this program.  By using this program,
 the user acknowledges that Gaussian, Inc. is engaged in the
 business of creating and licensing software in the field of
 computational chemistry and represents and warrants to the
 licensee that it is not a competitor of Gaussian, Inc. and that
 it will not use this program in any manner prohibited above.
 ---------------------------------------------------------------
  

 Cite this work as:
 Gaussian 09, Revision A.02,
 M. J. Frisch, G. W. Trucks, H. B. Schlegel, G. E. Scuseria, 
 M. A. Robb, J. R. Cheeseman, G. Scalmani, V. Barone, B. Mennucci, 
 G. A. Petersson, H. Nakatsuji, M. Caricato, X. Li, H. P. Hratchian, 
 A. F. Izmaylov, J. Bloino, G. Zheng, J. L. Sonnenberg, M. Hada, 
 M. Ehara, K. Toyota, R. Fukuda, J. Hasegawa, M. Ishida, T. Nakajima, 
 Y. Honda, O. Kitao, H. Nakai, T. Vreven, J. A. Montgomery, Jr., 
 J. E. Peralta, F. Ogliaro, M. Bearpark, J. J. Heyd, E. Brothers, 
 K. N. Kudin, V. N. Staroverov, R. Kobayashi, J. Normand, 
 K. Raghavachari, A. Rendell, J. C. Burant, S. S. Iyengar, J. Tomasi, 
 M. Cossi, N. Rega, J. M. Millam, M. Klene, J. E. Knox, J. B. Cross, 
 V. Bakken, C. Adamo, J. Jaramillo, R. Gomperts, R. E. Stratmann, 
 O. Yazyev, A. J. Austin, R. Cammi, C. Pomelli, J. W. Ochterski, 
 R. L. Martin, K. Morokuma, V. G. Zakrzewski, G. A. Voth, 
 P. Salvador, J. J. Dannenberg, S. Dapprich, A. D. Daniels, 
 O. Farkas, J. B. Foresman, J. V. Ortiz, J. Cioslowski, 
 and D. J. Fox, Gaussian, Inc., Wallingford CT, 2009.
 
 ******************************************
 Gaussian 09:  EM64L-G09RevA.02 11-Jun-2009
                 5-Dec-2019 
 ******************************************
 %chk=CHI3_-160
 %NoSave
 ---------------------------------
 #SP HF/6-31G* Geom=(ModRedundant)
 ---------------------------------
 1/18=120,38=1/1;
 2/12=2,17=6,18=5,40=1/2;
 3/5=1,6=6,7=1,11=9,16=1,25=1,30=1/1,2,3;
 4//1;
 5/5=2,38=5/2;
 6/7=2,8=2,9=2,10=2,28=1/1;
 99/5=1,9=1/99;
 ------------
 paramfit run
 ------------
 Symbolic Z-matrix:
 Charge =  0 Multiplicity = 1
 C-CT--0.3208          0.        0.        0. 
 N-N--0.5622           1.44819   0.        0. 
 C-C-0.8053            2.1232    0.47592   1.07237 
 O-O--0.6151           1.59018   0.69673   2.12445 
 C-CX-0.0839           3.65051   0.59414   0.92154 
 C-CU--0.3230          4.1989    1.54925   1.98685 
 C-CU--0.0657          4.30775  -0.80912   1.02398 
 C-CU--0.0109          4.13357  -1.62278   2.31907 
 C-CU-0.0816           2.83273  -2.4333    2.48497 
 C-CM--0.2354          2.51602  -2.80147   3.9155 
 C-CM--0.2653          1.68392  -2.18722   4.74077 
 C-CU-0.1214           0.84502  -0.96438   4.45679 
 C-CU--0.0354         -0.64019  -1.26403   4.18489 
 C-CU--0.0984         -1.33691  -1.93483   5.37633 
 C-CU-0.1300          -2.87356  -2.13061   5.30544 
 C-CU--0.3561         -3.3069   -2.87211   6.58053 
 N-N--0.7186          -3.507    -0.81956   5.26772 
 C-C-0.8537           -4.84878  -0.68153   5.05888 
 C-CT--0.3868         -5.29356   0.70956   4.66918 
 O-O--0.6323          -5.62277  -1.59079   5.17431 
 C-C-0.7903           -3.21482  -2.87111   3.99246 
 O-O--0.6136          -3.32399  -2.26063   2.96323 
 N-N--0.5650          -3.27958  -4.21936   4.03725 
 C-CT--0.3231         -3.64469  -4.97201   2.8547 
 N-N--0.7191           3.99741   1.07028  -0.42545 
 C-C-0.8539            3.58702   2.26716  -0.93409 
 C-CT--0.3903          4.32815   2.72766  -2.17214 
 O-O--0.6290           2.69713   2.90543  -0.4474 
 H-H1-0.1459          -0.40326   1.00615   0. 
 H-H1-0.1459          -0.36496  -0.516     0.87594 
 H-H1-0.1459          -0.34566  -0.52209  -0.88335 
 H-H-0.3572            1.90424   0.07091  -0.87936 
 H-HC-0.0997           3.93214   1.22176   2.98008 
 H-HC-0.0997           5.28092   1.59593   1.9075 
 H-HC-0.0997           3.79271   2.54059   1.8484 
 H-HC-0.0347           5.37458  -0.64325   0.89141 
 H-HC-0.0347           3.98464  -1.40332   0.17498 
 H-HC-0.0243           4.96157  -2.32476   2.35464 
 H-HC-0.0243           4.25012  -0.97572   3.18226 
 H-HC-0.0171           2.8791   -3.33571   1.88925 
 H-HC-0.0171           2.02924  -1.83849   2.0649 
 H-HA-0.1313           3.03291  -3.66985   4.29081 
 H-HA-0.1359           1.5801   -2.5985    5.73265 
 H-HC-0.0092           1.24325  -0.42453   3.60624 
 H-HC-0.0092           0.92029  -0.28801   5.30735 
 H-HC-0.0318          -1.12568  -0.32566   3.93161 
 H-HC-0.0318          -0.72359  -1.88921   3.30567 
 H-HC-0.0435          -1.1393   -1.36164   6.27962 
 H-HC-0.0435          -0.89772  -2.91387   5.52779 
 H-HC-0.1066          -3.11986  -2.23183   7.43472 
 H-HC-0.1066          -2.7299   -3.78002   6.72255 
 H-HC-0.1066          -4.35935  -3.11255   6.56386 
 H-H-0.3529           -2.94992  -0.08962   4.88618 
 H-HC-0.1047          -6.34503   0.81841   4.88743 
 H-HC-0.1047          -5.14495   0.83361   3.6007 
 H-HC-0.1047          -4.72891   1.47833   5.18545 
 H-H-0.3615           -3.42378  -4.65673   4.91658 
 H-H1-0.1469          -3.5209   -6.02636   3.06434 
 H-H1-0.1469          -2.99855  -4.69773   2.03379 
 H-H1-0.1469          -4.67215  -4.78497   2.55959 
 H-H-0.3570            4.82812   0.68479  -0.81644 
 H-HC-0.1060           3.71017   3.4346   -2.70629 
 H-HC-0.1060           4.58817   1.90253  -2.82568 
 H-HC-0.1060           5.24477   3.2262   -1.87372 
 
 The following ModRedundant input section has been read:
 D    *    8    9    * F                                                       
 Stoichiometry    C20H36N4O4
 Framework group  C1[X(C20H36N4O4)]
 Deg. of freedom   186
 Full point group                 C1      NOp   1
 Largest Abelian subgroup         C1      NOp   1
 Largest concise Abelian subgroup C1      NOp   1
                         Standard orientation:                         
 ---------------------------------------------------------------------
 Center     Atomic      Atomic             Coordinates (Angstroms)
 Number     Number       Type             X           Y           Z
 ---------------------------------------------------------------------
      1          6    20001001        1.569113   -1.757213    1.585448
      2          7    20001014        2.716227   -0.930388    1.272823
      3          6    20001002        2.879402   -0.448780    0.018416
      4          8    20001024        2.006944   -0.483136   -0.804617
      5          6    90000001        4.205968    0.277593   -0.267922
      6          6    90000002        4.439392    0.342196   -1.780927
      7          6    90000002        4.186183    1.695536    0.365044
      8          6    90000002        3.115658    2.702779   -0.092204
      9          6    90000002        1.719650    2.605706    0.554614
     10          6    20001004        0.623621    3.268804   -0.246198
     11          6    20001004       -0.234961    2.690858   -1.070560
     12          6    90000002       -0.330981    1.224142   -1.415924
     13          6    90000002       -1.475599    0.479464   -0.705382
     14          6    90000002       -2.858296    1.044336   -1.057495
     15          6    90000002       -4.108196    0.277875   -0.552585
     16          6    90000002       -5.348826    1.077548   -0.982481
     17          7    20001014       -4.134114   -1.034402   -1.184080
     18          6    20001002       -5.044191   -1.983806   -0.818774
     19          6    20001001       -4.716407   -3.388479   -1.270724
     20          8    20001024       -6.032004   -1.730142   -0.187093
     21          6    20001002       -3.978638    0.077800    0.974475
     22          8    20001024       -3.336595   -0.838253    1.413287
     23          7    20001014       -4.522267    1.020854    1.773911
     24          6    20001001       -4.481192    0.868828    3.213842
     25          7    20001014        5.321681   -0.411334    0.396904
     26          6    20001002        5.668622   -1.706165    0.146468
     27          6    20001001        7.036564   -2.114599    0.652468
     28          8    20001024        4.942302   -2.471808   -0.421325
     29          1    20001035        1.600348   -2.705225    1.060808
     30          1    20001035        0.661252   -1.241553    1.308670
     31          1    20001035        1.556012   -1.941041    2.652401
     32          1    20001029        3.542838   -1.077904    1.803142
     33          1    20001034        3.616231    0.827096   -2.283133
     34          1    20001034        5.352490    0.894423   -1.982259
     35          1    20001034        4.532524   -0.653187   -2.190152
     36          1    20001034        5.155466    2.132437    0.135199
     37          1    20001034        4.148596    1.589991    1.444733
     38          1    20001034        3.509046    3.690751    0.128647
     39          1    20001034        3.000940    2.658459   -1.170280
     40          1    20001034        1.740389    3.033892    1.548390
     41          1    20001034        1.501002    1.551953    0.687402
     42          1    20001033        0.542335    4.335909   -0.116609
     43          1    20001033       -0.957576    3.328012   -1.555971
     44          1    20001034        0.598825    0.720780   -1.180227
     45          1    20001034       -0.461858    1.130210   -2.493256
     46          1    20001034       -1.406199   -0.570052   -0.977545
     47          1    20001034       -1.318960    0.520589    0.364480
     48          1    20001034       -2.954646    1.115293   -2.138798
     49          1    20001034       -2.927524    2.055068   -0.672817
     50          1    20001034       -5.405559    1.074652   -2.064772
     51          1    20001034       -5.279369    2.112374   -0.663584
     52          1    20001034       -6.257917    0.641417   -0.596372
     53          1    20001029       -3.247267   -1.392109   -1.456592
     54          1    20001034       -5.620708   -3.977772   -1.276677
     55          1    20001034       -4.020035   -3.826287   -0.561843
     56          1    20001034       -4.259923   -3.404754   -2.254461
     57          1    20001029       -5.229556    1.607840    1.399077
     58          1    20001035       -4.855644    1.776848    3.667942
     59          1    20001035       -3.462425    0.708507    3.534837
     60          1    20001035       -5.081978    0.028863    3.547414
     61          1    20001029        6.041264    0.179085    0.750674
     62          1    20001034        7.061109   -3.188790    0.764198
     63          1    20001034        7.282450   -1.643054    1.597315
     64          1    20001034        7.786829   -1.825658   -0.076516
 ---------------------------------------------------------------------
 Rotational constants (GHZ):      0.2935102      0.0717959      0.0661217
 Standard basis: 6-31G(d) (6D, 7F)
 There are   492 symmetry adapted basis functions of A   symmetry.
 Integral buffers will be    131072 words long.
 Raffenetti 1 integral format.
 Two-electron integral symmetry is turned on.
   492 basis functions,   928 primitive gaussians,   492 cartesian basis functions
   108 alpha electrons      108 beta electrons
       nuclear repulsion energy      2808.3765307651 Hartrees.
 NAtoms=   64 NActive=   64 NUniq=   64 SFac= 7.50D-01 NAtFMM=   80 NAOKFM=F Big=T
 One-electron integrals computed using PRISM.
 NBasis=   492 RedAO= T  NBF=   492
 NBsUse=   492 1.00D-06 NBFU=   492
 Harris functional with IExCor=  205 diagonalized for initial guess.
 ExpMin= 1.61D-01 ExpMax= 5.48D+03 ExpMxC= 8.25D+02 IAcc=1 IRadAn=         1 AccDes= 0.00D+00
 HarFok:  IExCor=  205 AccDes= 0.00D+00 IRadAn=         1 IDoV= 1
 ScaDFX=  1.000000  1.000000  1.000000  1.000000
 FoFCou: FMM=F IPFlag=           0 FMFlag=      100000 FMFlg1=           1
         NFxFlg=           0 DoJE=T BraDBF=F KetDBF=T FulRan=T
         Omega=  0.000000  0.000000  1.000000  0.000000  0.000000 ICntrl=     500 IOpCl=  0
         NMat0=    1 NMatS0=    1 NMatT0=    0 NMatD0=    1 NMtDS0=    0 NMtDT0=    0
         I1Cent=           4 NGrid=           0.
 Petite list used in FoFCou.
 Initial guess orbital symmetries:
       Occupied  (A) (A) (A) (A) (A) (A) (A) (A) (A) (A) (A) (A)
                 (A) (A) (A) (A) (A) (A) (A) (A) (A) (A) (A) (A)
                 (A) (A) (A) (A) (A) (A) (A) (A) (A) (A) (A) (A)
                 (A) (A) (A) (A) (A) (A) (A) (A) (A) (A) (A) (A)
                 (A) (A) (A) (A) (A) (A) (A) (A) (A) (A) (A) (A)
                 (A) (A) (A) (A) (A) (A) (A) (A) (A) (A) (A) (A)
                 (A) (A) (A) (A) (A) (A) (A) (A) (A) (A) (A) (A)
                 (A) (A) (A) (A) (A) (A) (A) (A) (A) (A) (A) (A)
                 (A) (A) (A) (A) (A) (A) (A) (A) (A) (A) (A) (A)
       Virtual   (A) (A) (A) (A) (A) (A) (A) (A) (A) (A) (A) (A)
                 (A) (A) (A) (A) (A) (A) (A) (A) (A) (A) (A) (A)
                 (A) (A) (A) (A) (A) (A) (A) (A) (A) (A) (A) (A)
                 (A) (A) (A) (A) (A) (A) (A) (A) (A) (A) (A) (A)
                 (A) (A) (A) (A) (A) (A) (A) (A) (A) (A) (A) (A)
                 (A) (A) (A) (A) (A) (A) (A) (A) (A) (A) (A) (A)
                 (A) (A) (A) (A) (A) (A) (A) (A) (A) (A) (A) (A)
                 (A) (A) (A) (A) (A) (A) (A) (A) (A) (A) (A) (A)
                 (A) (A) (A) (A) (A) (A) (A) (A) (A) (A) (A) (A)
                 (A) (A) (A) (A) (A) (A) (A) (A) (A) (A) (A) (A)
                 (A) (A) (A) (A) (A) (A) (A) (A) (A) (A) (A) (A)
                 (A) (A) (A) (A) (A) (A) (A) (A) (A) (A) (A) (A)
                 (A) (A) (A) (A) (A) (A) (A) (A) (A) (A) (A) (A)
                 (A) (A) (A) (A) (A) (A) (A) (A) (A) (A) (A) (A)
                 (A) (A) (A) (A) (A) (A) (A) (A) (A) (A) (A) (A)
                 (A) (A) (A) (A) (A) (A) (A) (A) (A) (A) (A) (A)
                 (A) (A) (A) (A) (A) (A) (A) (A) (A) (A) (A) (A)
                 (A) (A) (A) (A) (A) (A) (A) (A) (A) (A) (A) (A)
                 (A) (A) (A) (A) (A) (A) (A) (A) (A) (A) (A) (A)
                 (A) (A) (A) (A) (A) (A) (A) (A) (A) (A) (A) (A)
                 (A) (A) (A) (A) (A) (A) (A) (A) (A) (A) (A) (A)
                 (A) (A) (A) (A) (A) (A) (A) (A) (A) (A) (A) (A)
                 (A) (A) (A) (A) (A) (A) (A) (A) (A) (A) (A) (A)
                 (A) (A) (A) (A) (A) (A) (A) (A) (A) (A) (A) (A)
                 (A) (A) (A) (A) (A) (A) (A) (A) (A) (A) (A) (A)
                 (A) (A) (A) (A) (A) (A) (A) (A) (A) (A) (A) (A)
                 (A) (A) (A) (A) (A) (A) (A) (A) (A) (A) (A) (A)
                 (A) (A) (A) (A) (A) (A) (A) (A) (A) (A) (A) (A)
                 (A) (A) (A) (A) (A) (A) (A) (A) (A) (A) (A) (A)
                 (A) (A) (A) (A) (A) (A) (A) (A) (A) (A) (A) (A)
                 (A) (A) (A) (A) (A) (A) (A) (A) (A) (A) (A) (A)
                 (A) (A) (A) (A) (A) (A) (A) (A) (A) (A) (A) (A)
 The electronic state of the initial guess is 1-A.
 Requested convergence on RMS density matrix=1.00D-08 within 128 cycles.
 Requested convergence on MAX density matrix=1.00D-06.
 Requested convergence on             energy=1.00D-06.
 No special actions if energy rises.
 Integral accuracy reduced to 1.0D-05 until final iterations.
 Initial convergence to 1.0D-05 achieved.  Increase integral accuracy.
 SCF Done:  E(RHF) =  -1295.61520307     A.U. after   14 cycles
             Convg  =    0.7092D-08             -V/T =  2.0012

 **********************************************************************

            Population analysis using the SCF density.

 **********************************************************************

 Orbital symmetries:
       Occupied  (A) (A) (A) (A) (A) (A) (A) (A) (A) (A) (A) (A)
                 (A) (A) (A) (A) (A) (A) (A) (A) (A) (A) (A) (A)
                 (A) (A) (A) (A) (A) (A) (A) (A) (A) (A) (A) (A)
                 (A) (A) (A) (A) (A) (A) (A) (A) (A) (A) (A) (A)
                 (A) (A) (A) (A) (A) (A) (A) (A) (A) (A) (A) (A)
                 (A) (A) (A) (A) (A) (A) (A) (A) (A) (A) (A) (A)
                 (A) (A) (A) (A) (A) (A) (A) (A) (A) (A) (A) (A)
                 (A) (A) (A) (A) (A) (A) (A) (A) (A) (A) (A) (A)
                 (A) (A) (A) (A) (A) (A) (A) (A) (A) (A) (A) (A)
       Virtual   (A) (A) (A) (A) (A) (A) (A) (A) (A) (A) (A) (A)
                 (A) (A) (A) (A) (A) (A) (A) (A) (A) (A) (A) (A)
                 (A) (A) (A) (A) (A) (A) (A) (A) (A) (A) (A) (A)
                 (A) (A) (A) (A) (A) (A) (A) (A) (A) (A) (A) (A)
                 (A) (A) (A) (A) (A) (A) (A) (A) (A) (A) (A) (A)
                 (A) (A) (A) (A) (A) (A) (A) (A) (A) (A) (A) (A)
                 (A) (A) (A) (A) (A) (A) (A) (A) (A) (A) (A) (A)
                 (A) (A) (A) (A) (A) (A) (A) (A) (A) (A) (A) (A)
                 (A) (A) (A) (A) (A) (A) (A) (A) (A) (A) (A) (A)
                 (A) (A) (A) (A) (A) (A) (A) (A) (A) (A) (A) (A)
                 (A) (A) (A) (A) (A) (A) (A) (A) (A) (A) (A) (A)
                 (A) (A) (A) (A) (A) (A) (A) (A) (A) (A) (A) (A)
                 (A) (A) (A) (A) (A) (A) (A) (A) (A) (A) (A) (A)
                 (A) (A) (A) (A) (A) (A) (A) (A) (A) (A) (A) (A)
                 (A) (A) (A) (A) (A) (A) (A) (A) (A) (A) (A) (A)
                 (A) (A) (A) (A) (A) (A) (A) (A) (A) (A) (A) (A)
                 (A) (A) (A) (A) (A) (A) (A) (A) (A) (A) (A) (A)
                 (A) (A) (A) (A) (A) (A) (A) (A) (A) (A) (A) (A)
                 (A) (A) (A) (A) (A) (A) (A) (A) (A) (A) (A) (A)
                 (A) (A) (A) (A) (A) (A) (A) (A) (A) (A) (A) (A)
                 (A) (A) (A) (A) (A) (A) (A) (A) (A) (A) (A) (A)
                 (A) (A) (A) (A) (A) (A) (A) (A) (A) (A) (A) (A)
                 (A) (A) (A) (A) (A) (A) (A) (A) (A) (A) (A) (A)
                 (A) (A) (A) (A) (A) (A) (A) (A) (A) (A) (A) (A)
                 (A) (A) (A) (A) (A) (A) (A) (A) (A) (A) (A) (A)
                 (A) (A) (A) (A) (A) (A) (A) (A) (A) (A) (A) (A)
                 (A) (A) (A) (A) (A) (A) (A) (A) (A) (A) (A) (A)
                 (A) (A) (A) (A) (A) (A) (A) (A) (A) (A) (A) (A)
                 (A) (A) (A) (A) (A) (A) (A) (A) (A) (A) (A) (A)
                 (A) (A) (A) (A) (A) (A) (A) (A) (A) (A) (A) (A)
                 (A) (A) (A) (A) (A) (A) (A) (A) (A) (A) (A) (A)
                 (A) (A) (A) (A) (A) (A) (A) (A) (A) (A) (A) (A)
 The electronic state is 1-A.
 Alpha  occ. eigenvalues --  -20.53816 -20.52434 -20.51368 -20.51002 -15.59812
 Alpha  occ. eigenvalues --  -15.57656 -15.57403 -15.56698 -11.36130 -11.34364
 Alpha  occ. eigenvalues --  -11.33559 -11.33066 -11.29347 -11.27672 -11.24718
 Alpha  occ. eigenvalues --  -11.24639 -11.24460 -11.24326 -11.22560 -11.22140
 Alpha  occ. eigenvalues --  -11.21863 -11.21551 -11.21169 -11.21118 -11.21059
 Alpha  occ. eigenvalues --  -11.20960 -11.20644 -11.19182  -1.40795  -1.39440
 Alpha  occ. eigenvalues --   -1.38723  -1.37467  -1.25672  -1.22739  -1.22273
 Alpha  occ. eigenvalues --   -1.22109  -1.10098  -1.08498  -1.06595  -1.03498
 Alpha  occ. eigenvalues --   -1.00866  -0.99128  -0.98116  -0.95512  -0.94703
 Alpha  occ. eigenvalues --   -0.94122  -0.91050  -0.87034  -0.84745  -0.82542
 Alpha  occ. eigenvalues --   -0.80420  -0.78878  -0.78683  -0.77480  -0.76241
 Alpha  occ. eigenvalues --   -0.71722  -0.71057  -0.70396  -0.69227  -0.67381
 Alpha  occ. eigenvalues --   -0.66447  -0.66046  -0.64021  -0.63497  -0.63203
 Alpha  occ. eigenvalues --   -0.62859  -0.62462  -0.60997  -0.60930  -0.60646
 Alpha  occ. eigenvalues --   -0.60411  -0.59761  -0.59126  -0.58385  -0.58086
 Alpha  occ. eigenvalues --   -0.57909  -0.57334  -0.56239  -0.55736  -0.55326
 Alpha  occ. eigenvalues --   -0.54672  -0.54496  -0.54419  -0.54010  -0.53366
 Alpha  occ. eigenvalues --   -0.52744  -0.52542  -0.51963  -0.51647  -0.51085
 Alpha  occ. eigenvalues --   -0.50839  -0.50288  -0.49095  -0.48571  -0.47936
 Alpha  occ. eigenvalues --   -0.46888  -0.46801  -0.44681  -0.43599  -0.42995
 Alpha  occ. eigenvalues --   -0.42138  -0.40805  -0.40373  -0.39607  -0.38375
 Alpha  occ. eigenvalues --   -0.38218  -0.37667  -0.33387
 Alpha virt. eigenvalues --    0.18629   0.18819   0.19716   0.19949   0.20336
 Alpha virt. eigenvalues --    0.22290   0.22783   0.23534   0.23975   0.24389
 Alpha virt. eigenvalues --    0.25580   0.25744   0.26621   0.27082   0.27964
 Alpha virt. eigenvalues --    0.28451   0.28750   0.29193   0.29301   0.29431
 Alpha virt. eigenvalues --    0.30132   0.31318   0.31484   0.31835   0.32275
 Alpha virt. eigenvalues --    0.32820   0.32907   0.33299   0.33587   0.34046
 Alpha virt. eigenvalues --    0.34366   0.34657   0.35048   0.35470   0.35653
 Alpha virt. eigenvalues --    0.35918   0.36471   0.37109   0.37844   0.38929
 Alpha virt. eigenvalues --    0.39125   0.39674   0.40080   0.40506   0.41120
 Alpha virt. eigenvalues --    0.41448   0.41958   0.43395   0.43889   0.44827
 Alpha virt. eigenvalues --    0.45554   0.45562   0.46362   0.47585   0.48552
 Alpha virt. eigenvalues --    0.49240   0.49610   0.50393   0.52986   0.53774
 Alpha virt. eigenvalues --    0.55451   0.56223   0.58445   0.59258   0.61231
 Alpha virt. eigenvalues --    0.63030   0.63454   0.65168   0.69993   0.71097
 Alpha virt. eigenvalues --    0.71550   0.72092   0.72449   0.73130   0.73389
 Alpha virt. eigenvalues --    0.74220   0.74792   0.75808   0.76598   0.77010
 Alpha virt. eigenvalues --    0.77142   0.77339   0.78614   0.79245   0.79329
 Alpha virt. eigenvalues --    0.79890   0.80811   0.81297   0.82347   0.82601
 Alpha virt. eigenvalues --    0.83047   0.84494   0.85048   0.86248   0.86698
 Alpha virt. eigenvalues --    0.87611   0.89125   0.89898   0.90344   0.91835
 Alpha virt. eigenvalues --    0.92231   0.92698   0.93222   0.93510   0.94796
 Alpha virt. eigenvalues --    0.96018   0.96443   0.96570   0.97653   0.97709
 Alpha virt. eigenvalues --    0.98361   0.99295   0.99889   1.00746   1.01165
 Alpha virt. eigenvalues --    1.01465   1.02597   1.02984   1.03476   1.03936
 Alpha virt. eigenvalues --    1.04168   1.05339   1.05777   1.07300   1.07988
 Alpha virt. eigenvalues --    1.08189   1.09431   1.10075   1.10951   1.11756
 Alpha virt. eigenvalues --    1.12610   1.13895   1.13982   1.14284   1.14609
 Alpha virt. eigenvalues --    1.15021   1.15117   1.15719   1.15889   1.16286
 Alpha virt. eigenvalues --    1.16774   1.17068   1.17719   1.18119   1.18533
 Alpha virt. eigenvalues --    1.18670   1.18753   1.19140   1.20028   1.20091
 Alpha virt. eigenvalues --    1.20251   1.20464   1.21102   1.21252   1.21759
 Alpha virt. eigenvalues --    1.22185   1.22418   1.22895   1.23072   1.23415
 Alpha virt. eigenvalues --    1.24232   1.24804   1.25116   1.26094   1.26854
 Alpha virt. eigenvalues --    1.27658   1.28871   1.30063   1.30222   1.30717
 Alpha virt. eigenvalues --    1.31574   1.32266   1.32793   1.33123   1.34761
 Alpha virt. eigenvalues --    1.35499   1.37038   1.38404   1.38660   1.39800
 Alpha virt. eigenvalues --    1.40477   1.41938   1.43200   1.43392   1.44417
 Alpha virt. eigenvalues --    1.45421   1.46429   1.47880   1.49291   1.50085
 Alpha virt. eigenvalues --    1.51979   1.54434   1.54906   1.55500   1.56855
 Alpha virt. eigenvalues --    1.58114   1.59359   1.60560   1.61509   1.62273
 Alpha virt. eigenvalues --    1.63981   1.64152   1.66168   1.69089   1.70178
 Alpha virt. eigenvalues --    1.72003   1.72507   1.73194   1.73926   1.74118
 Alpha virt. eigenvalues --    1.75245   1.76607   1.78708   1.79435   1.80934
 Alpha virt. eigenvalues --    1.81826   1.83566   1.85137   1.87865   1.89980
 Alpha virt. eigenvalues --    1.90923   1.91673   1.92113   1.95910   1.96496
 Alpha virt. eigenvalues --    1.96983   1.98840   1.98941   2.00184   2.02549
 Alpha virt. eigenvalues --    2.05887   2.06330   2.06945   2.07882   2.08488
 Alpha virt. eigenvalues --    2.09253   2.11213   2.11454   2.12071   2.13311
 Alpha virt. eigenvalues --    2.13530   2.14927   2.15477   2.15655   2.16291
 Alpha virt. eigenvalues --    2.17284   2.17842   2.18528   2.19130   2.20040
 Alpha virt. eigenvalues --    2.20779   2.21242   2.22294   2.23421   2.23660
 Alpha virt. eigenvalues --    2.25173   2.25892   2.26548   2.27399   2.28777
 Alpha virt. eigenvalues --    2.29599   2.29734   2.30360   2.31050   2.31935
 Alpha virt. eigenvalues --    2.32144   2.33702   2.34731   2.34877   2.37196
 Alpha virt. eigenvalues --    2.37858   2.38110   2.38446   2.39352   2.40511
 Alpha virt. eigenvalues --    2.40766   2.41357   2.42561   2.43317   2.45121
 Alpha virt. eigenvalues --    2.45523   2.47474   2.48204   2.49290   2.50855
 Alpha virt. eigenvalues --    2.52381   2.53227   2.54258   2.55410   2.56429
 Alpha virt. eigenvalues --    2.57240   2.57595   2.58048   2.59712   2.60313
 Alpha virt. eigenvalues --    2.62965   2.63726   2.64521   2.64922   2.65425
 Alpha virt. eigenvalues --    2.66458   2.68755   2.70432   2.71092   2.71443
 Alpha virt. eigenvalues --    2.72129   2.74000   2.75165   2.76275   2.76813
 Alpha virt. eigenvalues --    2.77601   2.78086   2.78635   2.79535   2.80289
 Alpha virt. eigenvalues --    2.82604   2.83499   2.83864   2.85780   2.87098
 Alpha virt. eigenvalues --    2.87470   2.89647   2.90588   2.94407   2.96648
 Alpha virt. eigenvalues --    2.96736   2.98136   2.98966   3.00996   3.01839
 Alpha virt. eigenvalues --    3.03923   3.04919   3.05618   3.06694   3.08958
 Alpha virt. eigenvalues --    3.11119   3.12503   3.13908   3.14866   3.16582
 Alpha virt. eigenvalues --    3.17192   3.19699   3.23214   3.29635   3.31381
 Alpha virt. eigenvalues --    3.35106   3.35617   3.38649   3.41202   3.42353
 Alpha virt. eigenvalues --    3.43351   3.47637   3.54290   3.56362   3.58283
 Alpha virt. eigenvalues --    3.60298   4.39043   4.40891   4.44131   4.48070
 Alpha virt. eigenvalues --    4.50032   4.52626   4.57274   4.60030   4.62200
 Alpha virt. eigenvalues --    4.64140   4.66655   4.67975   4.70214   4.70714
 Alpha virt. eigenvalues --    4.71729   4.78325   4.81269   4.85975   4.86317
 Alpha virt. eigenvalues --    4.88845   4.90673   4.94960   4.98566   5.01168
 Alpha virt. eigenvalues --    5.04096   5.11912   5.21487   5.24541
          Condensed to atoms (all electrons):
 Mulliken atomic charges:
              1
     1  C   -0.287548
     2  N   -0.778744
     3  C    0.824514
     4  O   -0.637165
     5  C    0.101662
     6  C   -0.472896
     7  C   -0.333797
     8  C   -0.314430
     9  C   -0.358972
    10  C   -0.185591
    11  C   -0.161297
    12  C   -0.401786
    13  C   -0.310657
    14  C   -0.326877
    15  C    0.091172
    16  C   -0.509266
    17  N   -0.787854
    18  C    0.766609
    19  C   -0.595058
    20  O   -0.616641
    21  C    0.821359
    22  O   -0.642058
    23  N   -0.805894
    24  C   -0.273600
    25  N   -0.842878
    26  C    0.744915
    27  C   -0.588939
    28  O   -0.591899
    29  H    0.185462
    30  H    0.209410
    31  H    0.167807
    32  H    0.392626
    33  H    0.198614
    34  H    0.146200
    35  H    0.212515
    36  H    0.163086
    37  H    0.178402
    38  H    0.161476
    39  H    0.186313
    40  H    0.163115
    41  H    0.193466
    42  H    0.165746
    43  H    0.164921
    44  H    0.278025
    45  H    0.149425
    46  H    0.157445
    47  H    0.184346
    48  H    0.173328
    49  H    0.179420
    50  H    0.183724
    51  H    0.146962
    52  H    0.223583
    53  H    0.392707
    54  H    0.208546
    55  H    0.208380
    56  H    0.178468
    57  H    0.395252
    58  H    0.163188
    59  H    0.195764
    60  H    0.183727
    61  H    0.383279
    62  H    0.219482
    63  H    0.177955
    64  H    0.201448
 Sum of Mulliken atomic charges =   0.00000
 Mulliken charges with hydrogens summed into heavy atoms:
              1
     1  C    0.275131
     2  N   -0.386118
     3  C    0.824514
     4  O   -0.637165
     5  C    0.101662
     6  C    0.084433
     7  C    0.007691
     8  C    0.033358
     9  C   -0.002390
    10  C   -0.019845
    11  C    0.003625
    12  C    0.025665
    13  C    0.031134
    14  C    0.025872
    15  C    0.091172
    16  C    0.045002
    17  N   -0.395146
    18  C    0.766609
    19  C    0.000336
    20  O   -0.616641
    21  C    0.821359
    22  O   -0.642058
    23  N   -0.410642
    24  C    0.269079
    25  N   -0.459599
    26  C    0.744915
    27  C    0.009946
    28  O   -0.591899
 Sum of Mulliken charges with hydrogens summed into heavy atoms =   0.00000
 Electronic spatial extent (au):  <R**2>=          16614.8941
 Charge=              0.0000 electrons
 Dipole moment (field-independent basis, Debye):
    X=              6.3893    Y=              3.8113    Z=              2.1656  Tot=              7.7485
 Quadrupole moment (field-independent basis, Debye-Ang):
   XX=           -147.3271   YY=           -170.9382   ZZ=           -165.8340
   XY=             -7.1801   XZ=             16.2797   YZ=              2.3866
 Traceless Quadrupole moment (field-independent basis, Debye-Ang):
   XX=             14.0393   YY=             -9.5717   ZZ=             -4.4676
   XY=             -7.1801   XZ=             16.2797   YZ=              2.3866
 Octapole moment (field-independent basis, Debye-Ang**2):
  XXX=            438.9678  YYY=            -26.6198  ZZZ=             29.6145  XYY=            -40.2955
  XXY=            102.3640  XXZ=             67.5110  XZZ=            -17.3809  YZZ=            -10.3148
  YYZ=             10.2133  XYZ=            -54.7952
 Hexadecapole moment (field-independent basis, Debye-Ang**3):
 XXXX=         -15893.2757 YYYY=          -3297.9916 ZZZZ=          -1656.4978 XXXY=           -717.1560
 XXXZ=            191.6572 YYYX=            123.0054 YYYZ=             29.2540 ZZZX=            -67.7021
 ZZZY=             26.4697 XXYY=          -3338.8395 XXZZ=          -2936.1458 YYZZ=           -834.3675
 XXYZ=             64.1362 YYXZ=            105.0219 ZZXY=            -48.2890
 N-N= 2.808376530765D+03 E-N=-8.649774240586D+03  KE= 1.294081831745D+03
 1\1\GINC-MOSURA\SP\RHF\6-31G(d)\C20H36N4O4\MARIE\05-Dec-2019\0\\#SP HF
 /6-31G* Geom=(ModRedundant)\\paramfit run\\0,1\C,0,0.,0.,0.\N,0,1.4481
 87,0.,0.\C,0,2.1232,0.47592,1.072365\O,0,1.590179,0.696732,2.124447\C,
 0,3.650505,0.594143,0.921539\C,0,4.198902,1.549248,1.986845\C,0,4.3077
 51,-0.809116,1.023981\C,0,4.133566,-1.622781,2.319066\C,0,2.832729,-2.
 433298,2.484965\C,0,2.516023,-2.80147,3.915498\C,0,1.683924,-2.187222,
 4.740766\C,0,0.845016,-0.964379,4.456792\C,0,-0.640192,-1.264029,4.184
 887\C,0,-1.336912,-1.934825,5.376327\C,0,-2.873561,-2.130613,5.305444\
 C,0,-3.306901,-2.872113,6.58053\N,0,-3.506997,-0.819558,5.267716\C,0,-
 4.848784,-0.681529,5.058876\C,0,-5.293563,0.709555,4.669179\O,0,-5.622
 77,-1.590793,5.174306\C,0,-3.21482,-2.871114,3.99246\O,0,-3.323993,-2.
 260627,2.963229\N,0,-3.279582,-4.219365,4.03725\C,0,-3.644686,-4.97201
 1,2.8547\N,0,3.997412,1.070275,-0.425452\C,0,3.587019,2.267163,-0.9340
 86\C,0,4.328148,2.727659,-2.172145\O,0,2.697134,2.905425,-0.447397\H,0
 ,-0.403259,1.006147,0.\H,0,-0.36496,-0.516002,0.875939\H,0,-0.345658,-
 0.522086,-0.883346\H,0,1.904244,0.070913,-0.879357\H,0,3.932135,1.2217
 6,2.980082\H,0,5.28092,1.595925,1.9075\H,0,3.792711,2.540594,1.848395\
 H,0,5.374584,-0.64325,0.891407\H,0,3.984642,-1.403324,0.174983\H,0,4.9
 61565,-2.324757,2.354635\H,0,4.250121,-0.975721,3.182259\H,0,2.879095,
 -3.335706,1.889252\H,0,2.029244,-1.838492,2.064903\H,0,3.032913,-3.669
 846,4.290813\H,0,1.580101,-2.598496,5.732651\H,0,1.243249,-0.424527,3.
 606241\H,0,0.920286,-0.288011,5.307354\H,0,-1.125677,-0.325664,3.93161
 \H,0,-0.723593,-1.889205,3.305666\H,0,-1.139295,-1.36164,6.279621\H,0,
 -0.897724,-2.913866,5.52779\H,0,-3.119856,-2.231833,7.434718\H,0,-2.72
 9904,-3.780016,6.722548\H,0,-4.35935,-3.112551,6.56386\H,0,-2.949924,-
 0.089618,4.886179\H,0,-6.345028,0.818407,4.887432\H,0,-5.144954,0.8336
 11,3.600699\H,0,-4.72891,1.478327,5.185452\H,0,-3.423778,-4.656734,4.9
 16583\H,0,-3.520895,-6.026359,3.064337\H,0,-2.998545,-4.697734,2.03378
 6\H,0,-4.672148,-4.784969,2.559588\H,0,4.82812,0.684785,-0.816437\H,0,
 3.710173,3.434604,-2.706288\H,0,4.588171,1.902533,-2.825678\H,0,5.2447
 71,3.226201,-1.873716\\Version=EM64L-G09RevA.02\State=1-A\HF=-1295.615
 2031\RMSD=7.092e-09\Dipole=2.6633119,-0.7116162,-1.3013734\Quadrupole=
 -5.3305336,-4.5170005,9.8475341,0.2164743,-13.4783646,-2.9740913\PG=C0
 1 [X(C20H36N4O4)]\\@


 IF YOU BELIEVE CERTAIN WORDS, YOU BELIEVE THEIR HIDDEN ARGUMENTS.
 WHEN YOU BELIEVE SOMETHING IS RIGHT OR WRONG, TRUE OR FALSE, 
 YOU BELIEVE THE ASSUMPTIONS IN THE WORDS WHICH EXPRESS THE ARGUMENTS.
 SUCH ASSUMPTIONS ARE OFTEN FULL OF HOLES, BUT REMAIN MOST PRECIOUS 
 TO THE CONVINCED.

                 -- THE OPEN-ENDED PROOF FROM THE PANOPLIA PROPHETICA
                    CHILDREN OF DUNE BY FRANK HERBERT
 Job cpu time:  0 days  0 hours  6 minutes 12.3 seconds.
 File lengths (MBytes):  RWF=    132 Int=      0 D2E=      0 Chk=     10 Scr=      1
 Normal termination of Gaussian 09 at Thu Dec  5 17:14:55 2019.
