 Entering Gaussian System, Link 0=g09
 Input=CHI4_-180.gau
 Output=CHI4_-180.log
 Initial command:
 /home/marie/Utilities//g09/l1.exe /tmp/g09/Gau-5871.inp -scrdir=/tmp/g09/
 Entering Link 1 = /home/marie/Utilities//g09/l1.exe PID=      5873.
  
 Copyright (c) 1988,1990,1992,1993,1995,1998,2003,2009, Gaussian, Inc.
                  All Rights Reserved.
  
 This is part of the Gaussian(R) 09 program.  It is based on
 the Gaussian(R) 03 system (copyright 2003, Gaussian, Inc.),
 the Gaussian(R) 98 system (copyright 1998, Gaussian, Inc.),
 the Gaussian(R) 94 system (copyright 1995, Gaussian, Inc.),
 the Gaussian 92(TM) system (copyright 1992, Gaussian, Inc.),
 the Gaussian 90(TM) system (copyright 1990, Gaussian, Inc.),
 the Gaussian 88(TM) system (copyright 1988, Gaussian, Inc.),
 the Gaussian 86(TM) system (copyright 1986, Carnegie Mellon
 University), and the Gaussian 82(TM) system (copyright 1983,
 Carnegie Mellon University). Gaussian is a federally registered
 trademark of Gaussian, Inc.
  
 This software contains proprietary and confidential information,
 including trade secrets, belonging to Gaussian, Inc.
  
 This software is provided under written license and may be
 used, copied, transmitted, or stored only in accord with that
 written license.
  
 The following legend is applicable only to US Government
 contracts under FAR:
  
                    RESTRICTED RIGHTS LEGEND
  
 Use, reproduction and disclosure by the US Government is
 subject to restrictions as set forth in subparagraphs (a)
 and (c) of the Commercial Computer Software - Restricted
 Rights clause in FAR 52.227-19.
  
 Gaussian, Inc.
 340 Quinnipiac St., Bldg. 40, Wallingford CT 06492
  
  
 ---------------------------------------------------------------
 Warning -- This program may not be used in any manner that
 competes with the business of Gaussian, Inc. or will provide
 assistance to any competitor of Gaussian, Inc.  The licensee
 of this program is prohibited from giving any competitor of
 Gaussian, Inc. access to this program.  By using this program,
 the user acknowledges that Gaussian, Inc. is engaged in the
 business of creating and licensing software in the field of
 computational chemistry and represents and warrants to the
 licensee that it is not a competitor of Gaussian, Inc. and that
 it will not use this program in any manner prohibited above.
 ---------------------------------------------------------------
  

 Cite this work as:
 Gaussian 09, Revision A.02,
 M. J. Frisch, G. W. Trucks, H. B. Schlegel, G. E. Scuseria, 
 M. A. Robb, J. R. Cheeseman, G. Scalmani, V. Barone, B. Mennucci, 
 G. A. Petersson, H. Nakatsuji, M. Caricato, X. Li, H. P. Hratchian, 
 A. F. Izmaylov, J. Bloino, G. Zheng, J. L. Sonnenberg, M. Hada, 
 M. Ehara, K. Toyota, R. Fukuda, J. Hasegawa, M. Ishida, T. Nakajima, 
 Y. Honda, O. Kitao, H. Nakai, T. Vreven, J. A. Montgomery, Jr., 
 J. E. Peralta, F. Ogliaro, M. Bearpark, J. J. Heyd, E. Brothers, 
 K. N. Kudin, V. N. Staroverov, R. Kobayashi, J. Normand, 
 K. Raghavachari, A. Rendell, J. C. Burant, S. S. Iyengar, J. Tomasi, 
 M. Cossi, N. Rega, J. M. Millam, M. Klene, J. E. Knox, J. B. Cross, 
 V. Bakken, C. Adamo, J. Jaramillo, R. Gomperts, R. E. Stratmann, 
 O. Yazyev, A. J. Austin, R. Cammi, C. Pomelli, J. W. Ochterski, 
 R. L. Martin, K. Morokuma, V. G. Zakrzewski, G. A. Voth, 
 P. Salvador, J. J. Dannenberg, S. Dapprich, A. D. Daniels, 
 O. Farkas, J. B. Foresman, J. V. Ortiz, J. Cioslowski, 
 and D. J. Fox, Gaussian, Inc., Wallingford CT, 2009.
 
 ******************************************
 Gaussian 09:  EM64L-G09RevA.02 11-Jun-2009
                 5-Dec-2019 
 ******************************************
 %chk=CHI4_-180
 %NoSave
 ---------------------------------
 #SP HF/6-31G* Geom=(ModRedundant)
 ---------------------------------
 1/18=120,38=1/1;
 2/12=2,17=6,18=5,40=1/2;
 3/5=1,6=6,7=1,11=9,16=1,25=1,30=1/1,2,3;
 4//1;
 5/5=2,38=5/2;
 6/7=2,8=2,9=2,10=2,28=1/1;
 99/5=1,9=1/99;
 ------------
 paramfit run
 ------------
 Symbolic Z-matrix:
 Charge =  0 Multiplicity = 1
 C-CT--0.3208          0.        0.        0. 
 N-N--0.5622           1.44819   0.        0. 
 C-C-0.8053            2.1232    0.47592   1.07237 
 O-O--0.6151           1.59018   0.69673   2.12445 
 C-CX-0.0839           3.65051   0.59414   0.92154 
 C-CU--0.3230          4.1989    1.54925   1.98685 
 C-CU--0.0657          4.30775  -0.80912   1.02398 
 C-CU--0.0109          4.13357  -1.62278   2.31907 
 C-CU-0.0816           2.83273  -2.4333    2.48497 
 C-CM--0.2354          2.57934  -3.42359   1.37258 
 C-CM--0.2653          1.55334  -4.24956   1.2467 
 C-CU-0.1214           0.38128  -4.4075    2.18536 
 C-CU--0.0354         -0.91297  -3.728     1.7029 
 C-CU--0.0984         -1.41629  -4.29276   0.36775 
 C-CU-0.1300          -2.80273  -3.82406  -0.14484 
 C-CU--0.3561         -3.0385   -4.48159  -1.51433 
 N-N--0.7186          -3.82131  -4.2771    0.79259 
 C-C-0.8537           -5.12386  -3.88676   0.67403 
 C-CT--0.3868         -5.972    -4.11395   1.90442 
 O-O--0.6323          -5.56918  -3.39977  -0.32781 
 C-C-0.7903           -2.82095  -2.27882  -0.17006 
 O-O--0.6136          -3.06844  -1.65934   0.82939 
 N-N--0.5650          -2.45094  -1.67085  -1.31786 
 C-CT--0.3231         -2.49439  -0.227    -1.42563 
 N-N--0.7191           3.99741   1.07028  -0.42545 
 C-C-0.8539            3.58702   2.26716  -0.93409 
 C-CT--0.3903          4.32815   2.72766  -2.17214 
 O-O--0.6290           2.69713   2.90543  -0.4474 
 H-H1-0.1459          -0.40326   1.00615   0. 
 H-H1-0.1459          -0.36496  -0.516     0.87594 
 H-H1-0.1459          -0.34566  -0.52209  -0.88335 
 H-H-0.3572            1.90424   0.07091  -0.87936 
 H-HC-0.0997           3.93214   1.22176   2.98008 
 H-HC-0.0997           5.28092   1.59593   1.9075 
 H-HC-0.0997           3.79271   2.54059   1.8484 
 H-HC-0.0347           5.37458  -0.64325   0.89141 
 H-HC-0.0347           3.98464  -1.40332   0.17498 
 H-HC-0.0243           4.96157  -2.32476   2.35464 
 H-HC-0.0243           4.25012  -0.97572   3.18226 
 H-HC-0.0171           1.98572  -1.76405   2.56272 
 H-HC-0.0171           2.89564  -2.94811   3.43725 
 H-HA-0.1313           3.32833  -3.44433   0.59753 
 H-HA-0.1359           1.53727  -4.88674   0.37635 
 H-HC-0.0092           0.62724  -4.01257   3.16363 
 H-HC-0.0092           0.19199  -5.47089   2.32662 
 H-HC-0.0318          -1.66093  -3.85136   2.48117 
 H-HC-0.0318          -0.74637  -2.66236   1.6163 
 H-HC-0.0435          -1.45938  -5.37813   0.42814 
 H-HC-0.0435          -0.69388  -4.05336  -0.40372 
 H-HC-0.1066          -3.11069  -5.55413  -1.37639 
 H-HC-0.1066          -2.20818  -4.29581  -2.18771 
 H-HC-0.1066          -3.9555   -4.13801  -1.96911 
 H-H-0.3529           -3.50999  -4.40679   1.72799 
 H-HC-0.1047          -7.01225  -4.1363    1.61726 
 H-HC-0.1047          -5.81737  -3.28533   2.58897 
 H-HC-0.1047          -5.71138  -5.03431   2.41567 
 H-H-0.3615           -2.4911   -2.19084  -2.16244 
 H-H1-0.1469          -2.04893   0.06266  -2.36827 
 H-H1-0.1469          -1.93013   0.21622  -0.61829 
 H-H1-0.1469          -3.51113   0.14978  -1.38056 
 H-H-0.3570            4.82812   0.68479  -0.81644 
 H-HC-0.1060           3.71017   3.4346   -2.70629 
 H-HC-0.1060           4.58817   1.90253  -2.82568 
 H-HC-0.1060           5.24477   3.2262   -1.87372 
 
 The following ModRedundant input section has been read:
 D    *    9   10    * F                                                       
 Stoichiometry    C20H36N4O4
 Framework group  C1[X(C20H36N4O4)]
 Deg. of freedom   186
 Full point group                 C1      NOp   1
 Largest Abelian subgroup         C1      NOp   1
 Largest concise Abelian subgroup C1      NOp   1
                         Standard orientation:                         
 ---------------------------------------------------------------------
 Center     Atomic      Atomic             Coordinates (Angstroms)
 Number     Number       Type             X           Y           Z
 ---------------------------------------------------------------------
      1          6    20001001        0.669997   -1.384057   -0.386780
      2          7    20001014        1.903565   -0.768257    0.056329
      3          6    20001002        2.730479   -0.188703   -0.845026
      4          8    20001024        2.394696    0.042466   -1.973546
      5          6    90000001        4.093003    0.291072   -0.313304
      6          6    90000002        5.063072    0.480071   -1.484239
      7          6    90000002        3.917988    1.604088    0.497227
      8          6    90000002        3.346537    2.847045   -0.208562
      9          6    90000002        1.814291    2.952864   -0.341460
     10          6    20001004        1.076966    2.886384    0.975434
     11          6    20001004       -0.229985    2.950315    1.171773
     12          6    90000002       -1.308790    3.106775    0.127047
     13          6    90000002       -2.056448    1.804541   -0.211712
     14          6    90000002       -2.784300    1.207030    0.999952
     15          6    90000002       -3.720992   -0.005583    0.761579
     16          6    90000002       -4.269627   -0.444887    2.128861
     17          7    20001014       -4.823658    0.420254   -0.089490
     18          6    20001002       -5.728980   -0.473426   -0.584248
     19          6    20001001       -6.567437    0.038282   -1.733139
     20          8    20001024       -5.855642   -1.582721   -0.145427
     21          6    20001002       -2.927086   -1.100570    0.013619
     22          8    20001024       -2.810939   -1.055291   -1.181532
     23          7    20001014       -2.296227   -2.031935    0.760987
     24          6    20001001       -1.577130   -3.115219    0.122553
     25          7    20001014        4.634633   -0.674299    0.654233
     26          6    20001002        4.910816   -1.975033    0.351768
     27          6    20001001        5.780319   -2.698647    1.358975
     28          8    20001024        4.488358   -2.513777   -0.631809
     29          1    20001035        0.853579   -2.253924   -1.006924
     30          1    20001035        0.090952   -0.672294   -0.956713
     31          1    20001035        0.099907   -1.681727    0.484279
     32          1    20001029        2.327035   -1.134321    0.876668
     33          1    20001034        4.666710    1.170866   -2.212683
     34          1    20001034        6.008996    0.861681   -1.111626
     35          1    20001034        5.236065   -0.461187   -1.985272
     36          1    20001034        4.913285    1.865592    0.849676
     37          1    20001034        3.329408    1.386018    1.382833
     38          1    20001034        3.684180    3.707048    0.362412
     39          1    20001034        3.786897    2.948843   -1.195018
     40          1    20001034        1.443595    2.173318   -0.994343
     41          1    20001034        1.600517    3.890084   -0.843209
     42          1    20001033        1.702195    2.769083    1.845746
     43          1    20001033       -0.579589    2.880236    2.189921
     44          1    20001034       -0.890006    3.505451   -0.789001
     45          1    20001034       -2.026754    3.846462    0.479163
     46          1    20001034       -2.756289    2.024175   -1.013185
     47          1    20001034       -1.356513    1.085396   -0.616374
     48          1    20001034       -3.389443    1.977165    1.473479
     49          1    20001034       -2.045419    0.899941    1.730774
     50          1    20001034       -4.892636    0.349018    2.524026
     51          1    20001034       -3.466683   -0.611896    2.839333
     52          1    20001034       -4.871845   -1.337450    2.048843
     53          1    20001029       -4.624128    1.185977   -0.691624
     54          1    20001034       -7.465929   -0.555326   -1.806642
     55          1    20001034       -5.999972   -0.073509   -2.652165
     56          1    20001034       -6.826327    1.084914   -1.615157
     57          1    20001029       -2.604900   -2.178640    1.692926
     58          1    20001035       -1.048251   -3.674385    0.883170
     59          1    20001035       -0.862332   -2.714004   -0.580808
     60          1    20001035       -2.245701   -3.782914   -0.411255
     61          1    20001029        5.139334   -0.280586    1.417000
     62          1    20001034        5.622961   -3.762384    1.255656
     63          1    20001034        5.567961   -2.394936    2.377903
     64          1    20001034        6.822995   -2.481591    1.150372
 ---------------------------------------------------------------------
 Rotational constants (GHZ):      0.2934435      0.0833796      0.0722828
 Standard basis: 6-31G(d) (6D, 7F)
 There are   492 symmetry adapted basis functions of A   symmetry.
 Integral buffers will be    131072 words long.
 Raffenetti 1 integral format.
 Two-electron integral symmetry is turned on.
   492 basis functions,   928 primitive gaussians,   492 cartesian basis functions
   108 alpha electrons      108 beta electrons
       nuclear repulsion energy      2868.2754922731 Hartrees.
 NAtoms=   64 NActive=   64 NUniq=   64 SFac= 7.50D-01 NAtFMM=   80 NAOKFM=F Big=T
 One-electron integrals computed using PRISM.
 NBasis=   492 RedAO= T  NBF=   492
 NBsUse=   492 1.00D-06 NBFU=   492
 Harris functional with IExCor=  205 diagonalized for initial guess.
 ExpMin= 1.61D-01 ExpMax= 5.48D+03 ExpMxC= 8.25D+02 IAcc=1 IRadAn=         1 AccDes= 0.00D+00
 HarFok:  IExCor=  205 AccDes= 0.00D+00 IRadAn=         1 IDoV= 1
 ScaDFX=  1.000000  1.000000  1.000000  1.000000
 FoFCou: FMM=F IPFlag=           0 FMFlag=      100000 FMFlg1=           1
         NFxFlg=           0 DoJE=T BraDBF=F KetDBF=T FulRan=T
         Omega=  0.000000  0.000000  1.000000  0.000000  0.000000 ICntrl=     500 IOpCl=  0
         NMat0=    1 NMatS0=    1 NMatT0=    0 NMatD0=    1 NMtDS0=    0 NMtDT0=    0
         I1Cent=           4 NGrid=           0.
 Petite list used in FoFCou.
 Initial guess orbital symmetries:
       Occupied  (A) (A) (A) (A) (A) (A) (A) (A) (A) (A) (A) (A)
                 (A) (A) (A) (A) (A) (A) (A) (A) (A) (A) (A) (A)
                 (A) (A) (A) (A) (A) (A) (A) (A) (A) (A) (A) (A)
                 (A) (A) (A) (A) (A) (A) (A) (A) (A) (A) (A) (A)
                 (A) (A) (A) (A) (A) (A) (A) (A) (A) (A) (A) (A)
                 (A) (A) (A) (A) (A) (A) (A) (A) (A) (A) (A) (A)
                 (A) (A) (A) (A) (A) (A) (A) (A) (A) (A) (A) (A)
                 (A) (A) (A) (A) (A) (A) (A) (A) (A) (A) (A) (A)
                 (A) (A) (A) (A) (A) (A) (A) (A) (A) (A) (A) (A)
       Virtual   (A) (A) (A) (A) (A) (A) (A) (A) (A) (A) (A) (A)
                 (A) (A) (A) (A) (A) (A) (A) (A) (A) (A) (A) (A)
                 (A) (A) (A) (A) (A) (A) (A) (A) (A) (A) (A) (A)
                 (A) (A) (A) (A) (A) (A) (A) (A) (A) (A) (A) (A)
                 (A) (A) (A) (A) (A) (A) (A) (A) (A) (A) (A) (A)
                 (A) (A) (A) (A) (A) (A) (A) (A) (A) (A) (A) (A)
                 (A) (A) (A) (A) (A) (A) (A) (A) (A) (A) (A) (A)
                 (A) (A) (A) (A) (A) (A) (A) (A) (A) (A) (A) (A)
                 (A) (A) (A) (A) (A) (A) (A) (A) (A) (A) (A) (A)
                 (A) (A) (A) (A) (A) (A) (A) (A) (A) (A) (A) (A)
                 (A) (A) (A) (A) (A) (A) (A) (A) (A) (A) (A) (A)
                 (A) (A) (A) (A) (A) (A) (A) (A) (A) (A) (A) (A)
                 (A) (A) (A) (A) (A) (A) (A) (A) (A) (A) (A) (A)
                 (A) (A) (A) (A) (A) (A) (A) (A) (A) (A) (A) (A)
                 (A) (A) (A) (A) (A) (A) (A) (A) (A) (A) (A) (A)
                 (A) (A) (A) (A) (A) (A) (A) (A) (A) (A) (A) (A)
                 (A) (A) (A) (A) (A) (A) (A) (A) (A) (A) (A) (A)
                 (A) (A) (A) (A) (A) (A) (A) (A) (A) (A) (A) (A)
                 (A) (A) (A) (A) (A) (A) (A) (A) (A) (A) (A) (A)
                 (A) (A) (A) (A) (A) (A) (A) (A) (A) (A) (A) (A)
                 (A) (A) (A) (A) (A) (A) (A) (A) (A) (A) (A) (A)
                 (A) (A) (A) (A) (A) (A) (A) (A) (A) (A) (A) (A)
                 (A) (A) (A) (A) (A) (A) (A) (A) (A) (A) (A) (A)
                 (A) (A) (A) (A) (A) (A) (A) (A) (A) (A) (A) (A)
                 (A) (A) (A) (A) (A) (A) (A) (A) (A) (A) (A) (A)
                 (A) (A) (A) (A) (A) (A) (A) (A) (A) (A) (A) (A)
                 (A) (A) (A) (A) (A) (A) (A) (A) (A) (A) (A) (A)
                 (A) (A) (A) (A) (A) (A) (A) (A) (A) (A) (A) (A)
                 (A) (A) (A) (A) (A) (A) (A) (A) (A) (A) (A) (A)
                 (A) (A) (A) (A) (A) (A) (A) (A) (A) (A) (A) (A)
                 (A) (A) (A) (A) (A) (A) (A) (A) (A) (A) (A) (A)
                 (A) (A) (A) (A) (A) (A) (A) (A) (A) (A) (A) (A)
 The electronic state of the initial guess is 1-A.
 Requested convergence on RMS density matrix=1.00D-08 within 128 cycles.
 Requested convergence on MAX density matrix=1.00D-06.
 Requested convergence on             energy=1.00D-06.
 No special actions if energy rises.
 Integral accuracy reduced to 1.0D-05 until final iterations.
 Initial convergence to 1.0D-05 achieved.  Increase integral accuracy.
 SCF Done:  E(RHF) =  -1295.59786502     A.U. after   14 cycles
             Convg  =    0.7224D-08             -V/T =  2.0011

 **********************************************************************

            Population analysis using the SCF density.

 **********************************************************************

 Orbital symmetries:
       Occupied  (A) (A) (A) (A) (A) (A) (A) (A) (A) (A) (A) (A)
                 (A) (A) (A) (A) (A) (A) (A) (A) (A) (A) (A) (A)
                 (A) (A) (A) (A) (A) (A) (A) (A) (A) (A) (A) (A)
                 (A) (A) (A) (A) (A) (A) (A) (A) (A) (A) (A) (A)
                 (A) (A) (A) (A) (A) (A) (A) (A) (A) (A) (A) (A)
                 (A) (A) (A) (A) (A) (A) (A) (A) (A) (A) (A) (A)
                 (A) (A) (A) (A) (A) (A) (A) (A) (A) (A) (A) (A)
                 (A) (A) (A) (A) (A) (A) (A) (A) (A) (A) (A) (A)
                 (A) (A) (A) (A) (A) (A) (A) (A) (A) (A) (A) (A)
       Virtual   (A) (A) (A) (A) (A) (A) (A) (A) (A) (A) (A) (A)
                 (A) (A) (A) (A) (A) (A) (A) (A) (A) (A) (A) (A)
                 (A) (A) (A) (A) (A) (A) (A) (A) (A) (A) (A) (A)
                 (A) (A) (A) (A) (A) (A) (A) (A) (A) (A) (A) (A)
                 (A) (A) (A) (A) (A) (A) (A) (A) (A) (A) (A) (A)
                 (A) (A) (A) (A) (A) (A) (A) (A) (A) (A) (A) (A)
                 (A) (A) (A) (A) (A) (A) (A) (A) (A) (A) (A) (A)
                 (A) (A) (A) (A) (A) (A) (A) (A) (A) (A) (A) (A)
                 (A) (A) (A) (A) (A) (A) (A) (A) (A) (A) (A) (A)
                 (A) (A) (A) (A) (A) (A) (A) (A) (A) (A) (A) (A)
                 (A) (A) (A) (A) (A) (A) (A) (A) (A) (A) (A) (A)
                 (A) (A) (A) (A) (A) (A) (A) (A) (A) (A) (A) (A)
                 (A) (A) (A) (A) (A) (A) (A) (A) (A) (A) (A) (A)
                 (A) (A) (A) (A) (A) (A) (A) (A) (A) (A) (A) (A)
                 (A) (A) (A) (A) (A) (A) (A) (A) (A) (A) (A) (A)
                 (A) (A) (A) (A) (A) (A) (A) (A) (A) (A) (A) (A)
                 (A) (A) (A) (A) (A) (A) (A) (A) (A) (A) (A) (A)
                 (A) (A) (A) (A) (A) (A) (A) (A) (A) (A) (A) (A)
                 (A) (A) (A) (A) (A) (A) (A) (A) (A) (A) (A) (A)
                 (A) (A) (A) (A) (A) (A) (A) (A) (A) (A) (A) (A)
                 (A) (A) (A) (A) (A) (A) (A) (A) (A) (A) (A) (A)
                 (A) (A) (A) (A) (A) (A) (A) (A) (A) (A) (A) (A)
                 (A) (A) (A) (A) (A) (A) (A) (A) (A) (A) (A) (A)
                 (A) (A) (A) (A) (A) (A) (A) (A) (A) (A) (A) (A)
                 (A) (A) (A) (A) (A) (A) (A) (A) (A) (A) (A) (A)
                 (A) (A) (A) (A) (A) (A) (A) (A) (A) (A) (A) (A)
                 (A) (A) (A) (A) (A) (A) (A) (A) (A) (A) (A) (A)
                 (A) (A) (A) (A) (A) (A) (A) (A) (A) (A) (A) (A)
                 (A) (A) (A) (A) (A) (A) (A) (A) (A) (A) (A) (A)
                 (A) (A) (A) (A) (A) (A) (A) (A) (A) (A) (A) (A)
                 (A) (A) (A) (A) (A) (A) (A) (A) (A) (A) (A) (A)
                 (A) (A) (A) (A) (A) (A) (A) (A) (A) (A) (A) (A)
 The electronic state is 1-A.
 Alpha  occ. eigenvalues --  -20.53523 -20.52037 -20.51860 -20.51430 -15.59490
 Alpha  occ. eigenvalues --  -15.58252 -15.57522 -15.56827 -11.35856 -11.34234
 Alpha  occ. eigenvalues --  -11.33909 -11.33433 -11.28870 -11.28642 -11.24800
 Alpha  occ. eigenvalues --  -11.24299 -11.24060 -11.23880 -11.23382 -11.22790
 Alpha  occ. eigenvalues --  -11.22436 -11.22307 -11.22206 -11.22197 -11.21895
 Alpha  occ. eigenvalues --  -11.21854 -11.21652 -11.20743  -1.40444  -1.39494
 Alpha  occ. eigenvalues --   -1.38295  -1.38220  -1.25267  -1.23577  -1.23006
 Alpha  occ. eigenvalues --   -1.21518  -1.10656  -1.09258  -1.07161  -1.04229
 Alpha  occ. eigenvalues --   -1.01234  -0.99295  -0.98824  -0.96446  -0.94798
 Alpha  occ. eigenvalues --   -0.94153  -0.92167  -0.86954  -0.85939  -0.82518
 Alpha  occ. eigenvalues --   -0.81469  -0.79575  -0.78689  -0.77091  -0.76671
 Alpha  occ. eigenvalues --   -0.72407  -0.71433  -0.71049  -0.68885  -0.68021
 Alpha  occ. eigenvalues --   -0.66367  -0.65963  -0.64325  -0.63967  -0.63883
 Alpha  occ. eigenvalues --   -0.63245  -0.62303  -0.61695  -0.61462  -0.61357
 Alpha  occ. eigenvalues --   -0.60330  -0.59638  -0.59364  -0.58912  -0.58346
 Alpha  occ. eigenvalues --   -0.57805  -0.57622  -0.57166  -0.56386  -0.56010
 Alpha  occ. eigenvalues --   -0.55454  -0.54966  -0.54696  -0.53861  -0.53662
 Alpha  occ. eigenvalues --   -0.53094  -0.52627  -0.52213  -0.52077  -0.51313
 Alpha  occ. eigenvalues --   -0.50659  -0.50640  -0.49680  -0.48873  -0.48544
 Alpha  occ. eigenvalues --   -0.47629  -0.47478  -0.46232  -0.44624  -0.42722
 Alpha  occ. eigenvalues --   -0.41721  -0.41627  -0.41067  -0.39199  -0.38915
 Alpha  occ. eigenvalues --   -0.38585  -0.37630  -0.34106
 Alpha virt. eigenvalues --    0.17434   0.18909   0.19461   0.20088   0.20449
 Alpha virt. eigenvalues --    0.21270   0.21816   0.23050   0.23542   0.24464
 Alpha virt. eigenvalues --    0.24625   0.25806   0.26251   0.26759   0.27147
 Alpha virt. eigenvalues --    0.28192   0.28246   0.28683   0.29032   0.29516
 Alpha virt. eigenvalues --    0.29617   0.31170   0.31237   0.31683   0.31829
 Alpha virt. eigenvalues --    0.32255   0.32617   0.33294   0.33376   0.34003
 Alpha virt. eigenvalues --    0.34120   0.34491   0.34863   0.35184   0.35468
 Alpha virt. eigenvalues --    0.36117   0.36825   0.37767   0.38345   0.38677
 Alpha virt. eigenvalues --    0.38937   0.39796   0.40565   0.40892   0.41755
 Alpha virt. eigenvalues --    0.42224   0.42682   0.43136   0.44262   0.44373
 Alpha virt. eigenvalues --    0.45410   0.46039   0.46946   0.47185   0.47692
 Alpha virt. eigenvalues --    0.48804   0.50312   0.51642   0.52916   0.53250
 Alpha virt. eigenvalues --    0.55541   0.56762   0.57697   0.58453   0.60177
 Alpha virt. eigenvalues --    0.61074   0.63317   0.64301   0.68816   0.69873
 Alpha virt. eigenvalues --    0.70490   0.71285   0.71891   0.72326   0.72708
 Alpha virt. eigenvalues --    0.73389   0.74396   0.74905   0.75484   0.76300
 Alpha virt. eigenvalues --    0.77332   0.78233   0.78602   0.79149   0.80278
 Alpha virt. eigenvalues --    0.81004   0.81381   0.82770   0.83170   0.83627
 Alpha virt. eigenvalues --    0.84635   0.84864   0.86005   0.86601   0.87204
 Alpha virt. eigenvalues --    0.87505   0.88552   0.90337   0.91133   0.91993
 Alpha virt. eigenvalues --    0.92081   0.92377   0.93315   0.94067   0.95169
 Alpha virt. eigenvalues --    0.95334   0.96380   0.96974   0.97372   0.98041
 Alpha virt. eigenvalues --    0.98440   0.99764   1.00021   1.00978   1.01976
 Alpha virt. eigenvalues --    1.02175   1.03025   1.03504   1.03808   1.04376
 Alpha virt. eigenvalues --    1.05241   1.05518   1.06321   1.07182   1.07825
 Alpha virt. eigenvalues --    1.09051   1.09942   1.10775   1.11901   1.12371
 Alpha virt. eigenvalues --    1.12882   1.13284   1.13552   1.14532   1.14644
 Alpha virt. eigenvalues --    1.15058   1.15385   1.15976   1.16119   1.16542
 Alpha virt. eigenvalues --    1.17020   1.17330   1.17957   1.18272   1.18423
 Alpha virt. eigenvalues --    1.18841   1.19040   1.19310   1.19691   1.19943
 Alpha virt. eigenvalues --    1.20173   1.20533   1.21224   1.21736   1.21966
 Alpha virt. eigenvalues --    1.22335   1.22719   1.22773   1.23502   1.23778
 Alpha virt. eigenvalues --    1.24823   1.25103   1.26117   1.27217   1.27932
 Alpha virt. eigenvalues --    1.28358   1.28764   1.29118   1.29421   1.30332
 Alpha virt. eigenvalues --    1.30670   1.31817   1.32340   1.33711   1.34225
 Alpha virt. eigenvalues --    1.35121   1.35922   1.37259   1.38529   1.39133
 Alpha virt. eigenvalues --    1.39583   1.41096   1.42035   1.42131   1.44472
 Alpha virt. eigenvalues --    1.45671   1.46674   1.47417   1.49054   1.49953
 Alpha virt. eigenvalues --    1.51757   1.53105   1.53851   1.55098   1.55889
 Alpha virt. eigenvalues --    1.58756   1.59508   1.60625   1.61645   1.62283
 Alpha virt. eigenvalues --    1.62763   1.63012   1.63487   1.65912   1.68281
 Alpha virt. eigenvalues --    1.70197   1.70617   1.72624   1.73095   1.73861
 Alpha virt. eigenvalues --    1.75290   1.75999   1.78944   1.79694   1.80271
 Alpha virt. eigenvalues --    1.81958   1.83086   1.83203   1.84490   1.87830
 Alpha virt. eigenvalues --    1.89608   1.90737   1.92633   1.93660   1.94847
 Alpha virt. eigenvalues --    1.96276   1.97719   1.98847   2.00315   2.02808
 Alpha virt. eigenvalues --    2.05140   2.06601   2.07104   2.07724   2.08123
 Alpha virt. eigenvalues --    2.09977   2.10958   2.11820   2.12462   2.12932
 Alpha virt. eigenvalues --    2.13011   2.14155   2.15357   2.16192   2.16678
 Alpha virt. eigenvalues --    2.16755   2.17405   2.18234   2.19058   2.19642
 Alpha virt. eigenvalues --    2.20487   2.20841   2.22587   2.22754   2.23652
 Alpha virt. eigenvalues --    2.24442   2.25813   2.26165   2.27235   2.27595
 Alpha virt. eigenvalues --    2.29047   2.29423   2.30509   2.30867   2.31971
 Alpha virt. eigenvalues --    2.32875   2.33178   2.34560   2.35704   2.36504
 Alpha virt. eigenvalues --    2.37588   2.37744   2.38712   2.39489   2.40085
 Alpha virt. eigenvalues --    2.41098   2.42279   2.42898   2.43970   2.45538
 Alpha virt. eigenvalues --    2.46468   2.47105   2.48383   2.49623   2.50379
 Alpha virt. eigenvalues --    2.51566   2.53611   2.54322   2.55275   2.55896
 Alpha virt. eigenvalues --    2.57079   2.57392   2.58361   2.58975   2.60690
 Alpha virt. eigenvalues --    2.61749   2.63678   2.64099   2.65214   2.65537
 Alpha virt. eigenvalues --    2.66869   2.67943   2.69512   2.71123   2.71347
 Alpha virt. eigenvalues --    2.72163   2.73565   2.73946   2.75259   2.76722
 Alpha virt. eigenvalues --    2.77720   2.77844   2.78893   2.79226   2.80145
 Alpha virt. eigenvalues --    2.83241   2.83940   2.84811   2.86191   2.86746
 Alpha virt. eigenvalues --    2.88243   2.89162   2.90033   2.91974   2.96232
 Alpha virt. eigenvalues --    2.97464   2.98306   2.98883   2.99583   3.01568
 Alpha virt. eigenvalues --    3.04076   3.05432   3.05935   3.06889   3.07849
 Alpha virt. eigenvalues --    3.11161   3.12198   3.13186   3.14520   3.15727
 Alpha virt. eigenvalues --    3.18751   3.19210   3.25555   3.30002   3.30679
 Alpha virt. eigenvalues --    3.34512   3.36139   3.39391   3.40586   3.42992
 Alpha virt. eigenvalues --    3.43423   3.43732   3.53764   3.55823   3.57592
 Alpha virt. eigenvalues --    3.60637   4.39420   4.43172   4.46231   4.47096
 Alpha virt. eigenvalues --    4.50051   4.53533   4.55815   4.57828   4.61834
 Alpha virt. eigenvalues --    4.65277   4.66142   4.68118   4.69861   4.70504
 Alpha virt. eigenvalues --    4.72427   4.77498   4.80031   4.82789   4.84748
 Alpha virt. eigenvalues --    4.87102   4.89765   4.91532   4.95121   5.02978
 Alpha virt. eigenvalues --    5.04350   5.11901   5.22733   5.24433
          Condensed to atoms (all electrons):
 Mulliken atomic charges:
              1
     1  C   -0.308681
     2  N   -0.793634
     3  C    0.823416
     4  O   -0.630103
     5  C    0.103767
     6  C   -0.472698
     7  C   -0.334466
     8  C   -0.331474
     9  C   -0.358818
    10  C   -0.166156
    11  C   -0.183211
    12  C   -0.354122
    13  C   -0.316835
    14  C   -0.329150
    15  C    0.091296
    16  C   -0.509173
    17  N   -0.787552
    18  C    0.767010
    19  C   -0.595826
    20  O   -0.614289
    21  C    0.823045
    22  O   -0.636381
    23  N   -0.813013
    24  C   -0.310112
    25  N   -0.842619
    26  C    0.744558
    27  C   -0.588543
    28  O   -0.590991
    29  H    0.185142
    30  H    0.222873
    31  H    0.189656
    32  H    0.387270
    33  H    0.198215
    34  H    0.142889
    35  H    0.213129
    36  H    0.160887
    37  H    0.180712
    38  H    0.163640
    39  H    0.185790
    40  H    0.219145
    41  H    0.175546
    42  H    0.165003
    43  H    0.168282
    44  H    0.181855
    45  H    0.160198
    46  H    0.153153
    47  H    0.206013
    48  H    0.174530
    49  H    0.182177
    50  H    0.184913
    51  H    0.146164
    52  H    0.226823
    53  H    0.390966
    54  H    0.211142
    55  H    0.210750
    56  H    0.176759
    57  H    0.396406
    58  H    0.163974
    59  H    0.219034
    60  H    0.194559
    61  H    0.381350
    62  H    0.218265
    63  H    0.176362
    64  H    0.201184
 Sum of Mulliken atomic charges =   0.00000
 Mulliken charges with hydrogens summed into heavy atoms:
              1
     1  C    0.288989
     2  N   -0.406364
     3  C    0.823416
     4  O   -0.630103
     5  C    0.103767
     6  C    0.081536
     7  C    0.007133
     8  C    0.017956
     9  C    0.035872
    10  C   -0.001153
    11  C   -0.014929
    12  C   -0.012069
    13  C    0.042331
    14  C    0.027558
    15  C    0.091296
    16  C    0.048728
    17  N   -0.396585
    18  C    0.767010
    19  C    0.002825
    20  O   -0.614289
    21  C    0.823045
    22  O   -0.636381
    23  N   -0.416607
    24  C    0.267455
    25  N   -0.461268
    26  C    0.744558
    27  C    0.007267
    28  O   -0.590991
 Sum of Mulliken charges with hydrogens summed into heavy atoms =   0.00000
 Electronic spatial extent (au):  <R**2>=          15029.9299
 Charge=              0.0000 electrons
 Dipole moment (field-independent basis, Debye):
    X=              3.2360    Y=              2.9020    Z=              7.0645  Tot=              8.2946
 Quadrupole moment (field-independent basis, Debye-Ang):
   XX=           -157.4587   YY=           -172.2112   ZZ=           -173.4837
   XY=            -11.8112   XZ=             19.8026   YZ=            -13.6963
 Traceless Quadrupole moment (field-independent basis, Debye-Ang):
   XX=             10.2592   YY=             -4.4934   ZZ=             -5.7659
   XY=            -11.8112   XZ=             19.8026   YZ=            -13.6963
 Octapole moment (field-independent basis, Debye-Ang**2):
  XXX=            200.9127  YYY=            -39.3673  ZZZ=             17.9459  XYY=              4.9792
  XXY=            100.8934  XXZ=             50.7487  XZZ=            -23.3297  YZZ=            -12.0875
  YYZ=             12.3747  XYZ=            -13.8748
 Hexadecapole moment (field-independent basis, Debye-Ang**3):
 XXXX=         -14108.7594 YYYY=          -3830.0234 ZZZZ=          -1289.3409 XXXY=           -640.3256
 XXXZ=            685.9296 YYYX=             -6.0087 YYYZ=           -104.1385 ZZZX=             59.3014
 ZZZY=            -19.7456 XXYY=          -3251.4288 XXZZ=          -2561.0222 YYZZ=           -828.6916
 XXYZ=           -194.0462 YYXZ=             51.5150 ZZXY=              4.5408
 N-N= 2.868275492273D+03 E-N=-8.768818061339D+03  KE= 1.294134666339D+03
 1\1\GINC-MOSURA\SP\RHF\6-31G(d)\C20H36N4O4\MARIE\05-Dec-2019\0\\#SP HF
 /6-31G* Geom=(ModRedundant)\\paramfit run\\0,1\C,0,0.,0.,0.\N,0,1.4481
 87,0.,0.\C,0,2.1232,0.47592,1.072365\O,0,1.590179,0.696732,2.124447\C,
 0,3.650505,0.594143,0.921539\C,0,4.198902,1.549248,1.986845\C,0,4.3077
 51,-0.809116,1.023981\C,0,4.133566,-1.622781,2.319066\C,0,2.832729,-2.
 433298,2.484965\C,0,2.579342,-3.423586,1.372579\C,0,1.553338,-4.249556
 ,1.246696\C,0,0.38128,-4.407496,2.185359\C,0,-0.912966,-3.727995,1.702
 895\C,0,-1.416287,-4.292763,0.367747\C,0,-2.802728,-3.82406,-0.144839\
 C,0,-3.038504,-4.481592,-1.514332\N,0,-3.821312,-4.277095,0.792591\C,0
 ,-5.123862,-3.886755,0.674033\C,0,-5.972004,-4.113946,1.904417\O,0,-5.
 56918,-3.399773,-0.327807\C,0,-2.820946,-2.278823,-0.170062\O,0,-3.068
 444,-1.659336,0.829392\N,0,-2.450939,-1.670849,-1.317862\C,0,-2.494391
 ,-0.227,-1.425625\N,0,3.997412,1.070275,-0.425452\C,0,3.587019,2.26716
 3,-0.934086\C,0,4.328148,2.727659,-2.172145\O,0,2.697134,2.905425,-0.4
 47397\H,0,-0.403259,1.006147,0.\H,0,-0.36496,-0.516002,0.875939\H,0,-0
 .345658,-0.522086,-0.883346\H,0,1.904244,0.070913,-0.879357\H,0,3.9321
 35,1.22176,2.980082\H,0,5.28092,1.595925,1.9075\H,0,3.792711,2.540594,
 1.848395\H,0,5.374584,-0.64325,0.891407\H,0,3.984642,-1.403324,0.17498
 3\H,0,4.961565,-2.324757,2.354635\H,0,4.250121,-0.975721,3.182259\H,0,
 1.985724,-1.764045,2.562723\H,0,2.895638,-2.94811,3.437249\H,0,3.32832
 7,-3.444325,0.597528\H,0,1.537272,-4.886737,0.37635\H,0,0.627239,-4.01
 2571,3.163625\H,0,0.191986,-5.470891,2.326617\H,0,-1.660929,-3.851362,
 2.481167\H,0,-0.746372,-2.662361,1.616298\H,0,-1.459384,-5.378134,0.42
 8136\H,0,-0.693875,-4.053358,-0.403716\H,0,-3.110689,-5.554132,-1.3763
 92\H,0,-2.208184,-4.295813,-2.187709\H,0,-3.955495,-4.138011,-1.969105
 \H,0,-3.509988,-4.406791,1.727988\H,0,-7.012246,-4.136299,1.617262\H,0
 ,-5.81737,-3.285334,2.588971\H,0,-5.711377,-5.034312,2.415672\H,0,-2.4
 911,-2.190837,-2.162439\H,0,-2.04893,0.062657,-2.368272\H,0,-1.93013,0
 .216224,-0.618291\H,0,-3.51113,0.149781,-1.380557\H,0,4.82812,0.684785
 ,-0.816437\H,0,3.710173,3.434604,-2.706288\H,0,4.588171,1.902533,-2.82
 5678\H,0,5.244771,3.226201,-1.873716\\Version=EM64L-G09RevA.02\State=1
 -A\HF=-1295.597865\RMSD=7.224e-09\Dipole=2.4203697,-1.4978109,-1.59620
 25\Quadrupole=3.1922459,-8.770344,5.578098,8.7417838,-12.5778122,-12.1
 526247\PG=C01 [X(C20H36N4O4)]\\@


 IT IS BETTER TO THINK YOU ARE HALF DRY THAN TO KNOW YOU
 ARE ALL WET.  -- SNOOPY
 Job cpu time:  0 days  0 hours  6 minutes 43.7 seconds.
 File lengths (MBytes):  RWF=    132 Int=      0 D2E=      0 Chk=     10 Scr=      1
 Normal termination of Gaussian 09 at Thu Dec  5 17:04:09 2019.
