 Entering Gaussian System, Link 0=g09
 Input=CHI4_20.gau
 Output=CHI4_20.log
 Initial command:
 /home/marie/Utilities//g09/l1.exe /tmp/g09/Gau-8887.inp -scrdir=/tmp/g09/
 Entering Link 1 = /home/marie/Utilities//g09/l1.exe PID=      8891.
  
 Copyright (c) 1988,1990,1992,1993,1995,1998,2003,2009, Gaussian, Inc.
                  All Rights Reserved.
  
 This is part of the Gaussian(R) 09 program.  It is based on
 the Gaussian(R) 03 system (copyright 2003, Gaussian, Inc.),
 the Gaussian(R) 98 system (copyright 1998, Gaussian, Inc.),
 the Gaussian(R) 94 system (copyright 1995, Gaussian, Inc.),
 the Gaussian 92(TM) system (copyright 1992, Gaussian, Inc.),
 the Gaussian 90(TM) system (copyright 1990, Gaussian, Inc.),
 the Gaussian 88(TM) system (copyright 1988, Gaussian, Inc.),
 the Gaussian 86(TM) system (copyright 1986, Carnegie Mellon
 University), and the Gaussian 82(TM) system (copyright 1983,
 Carnegie Mellon University). Gaussian is a federally registered
 trademark of Gaussian, Inc.
  
 This software contains proprietary and confidential information,
 including trade secrets, belonging to Gaussian, Inc.
  
 This software is provided under written license and may be
 used, copied, transmitted, or stored only in accord with that
 written license.
  
 The following legend is applicable only to US Government
 contracts under FAR:
  
                    RESTRICTED RIGHTS LEGEND
  
 Use, reproduction and disclosure by the US Government is
 subject to restrictions as set forth in subparagraphs (a)
 and (c) of the Commercial Computer Software - Restricted
 Rights clause in FAR 52.227-19.
  
 Gaussian, Inc.
 340 Quinnipiac St., Bldg. 40, Wallingford CT 06492
  
  
 ---------------------------------------------------------------
 Warning -- This program may not be used in any manner that
 competes with the business of Gaussian, Inc. or will provide
 assistance to any competitor of Gaussian, Inc.  The licensee
 of this program is prohibited from giving any competitor of
 Gaussian, Inc. access to this program.  By using this program,
 the user acknowledges that Gaussian, Inc. is engaged in the
 business of creating and licensing software in the field of
 computational chemistry and represents and warrants to the
 licensee that it is not a competitor of Gaussian, Inc. and that
 it will not use this program in any manner prohibited above.
 ---------------------------------------------------------------
  

 Cite this work as:
 Gaussian 09, Revision A.02,
 M. J. Frisch, G. W. Trucks, H. B. Schlegel, G. E. Scuseria, 
 M. A. Robb, J. R. Cheeseman, G. Scalmani, V. Barone, B. Mennucci, 
 G. A. Petersson, H. Nakatsuji, M. Caricato, X. Li, H. P. Hratchian, 
 A. F. Izmaylov, J. Bloino, G. Zheng, J. L. Sonnenberg, M. Hada, 
 M. Ehara, K. Toyota, R. Fukuda, J. Hasegawa, M. Ishida, T. Nakajima, 
 Y. Honda, O. Kitao, H. Nakai, T. Vreven, J. A. Montgomery, Jr., 
 J. E. Peralta, F. Ogliaro, M. Bearpark, J. J. Heyd, E. Brothers, 
 K. N. Kudin, V. N. Staroverov, R. Kobayashi, J. Normand, 
 K. Raghavachari, A. Rendell, J. C. Burant, S. S. Iyengar, J. Tomasi, 
 M. Cossi, N. Rega, J. M. Millam, M. Klene, J. E. Knox, J. B. Cross, 
 V. Bakken, C. Adamo, J. Jaramillo, R. Gomperts, R. E. Stratmann, 
 O. Yazyev, A. J. Austin, R. Cammi, C. Pomelli, J. W. Ochterski, 
 R. L. Martin, K. Morokuma, V. G. Zakrzewski, G. A. Voth, 
 P. Salvador, J. J. Dannenberg, S. Dapprich, A. D. Daniels, 
 O. Farkas, J. B. Foresman, J. V. Ortiz, J. Cioslowski, 
 and D. J. Fox, Gaussian, Inc., Wallingford CT, 2009.
 
 ******************************************
 Gaussian 09:  EM64L-G09RevA.02 11-Jun-2009
                 5-Dec-2019 
 ******************************************
 %chk=CHI4_20
 %NoSave
 ---------------------------------
 #SP HF/6-31G* Geom=(ModRedundant)
 ---------------------------------
 1/18=120,38=1/1;
 2/12=2,17=6,18=5,40=1/2;
 3/5=1,6=6,7=1,11=9,16=1,25=1,30=1/1,2,3;
 4//1;
 5/5=2,38=5/2;
 6/7=2,8=2,9=2,10=2,28=1/1;
 99/5=1,9=1/99;
 ------------
 paramfit run
 ------------
 Symbolic Z-matrix:
 Charge =  0 Multiplicity = 1
 C-CT--0.3208          0.        0.        0. 
 N-N--0.5622           1.44819   0.        0. 
 C-C-0.8053            2.1232    0.47592   1.07237 
 O-O--0.6151           1.59018   0.69673   2.12445 
 C-CX-0.0839           3.65051   0.59414   0.92154 
 C-CU--0.3230          4.1989    1.54925   1.98685 
 C-CU--0.0657          4.30775  -0.80912   1.02398 
 C-CU--0.0109          4.13357  -1.62278   2.31907 
 C-CU-0.0816           2.83273  -2.4333    2.48497 
 C-CM--0.2354          2.57934  -3.42359   1.37258 
 C-CM--0.2653          3.46097  -3.92368   0.52205 
 C-CU-0.1214           4.93979  -3.62707   0.45222 
 C-CU--0.0354          5.8354   -4.72522   1.05347 
 C-CU--0.0984          5.68351  -6.07273   0.3351 
 C-CU-0.1300           6.65489  -7.21785   0.72212 
 C-CU--0.3561          6.25384  -8.46126  -0.08816 
 N-N--0.7186           8.00868  -6.8196    0.36131 
 C-C-0.8537            9.09155  -7.57108   0.71587 
 C-CT--0.3868          10.42162  -6.86008   0.61487 
 O-O--0.6323           9.00233  -8.7104    1.08072 
 C-C-0.7903            6.5997   -7.41263   2.25435 
 O-O--0.6136           7.25837  -6.71517   2.97798 
 N-N--0.5650           5.71645  -8.31389   2.7356 
 C-CT--0.3231          5.64923  -8.58218   4.15746 
 N-N--0.7191           3.99741   1.07028  -0.42545 
 C-C-0.8539            3.58702   2.26716  -0.93409 
 C-CT--0.3903          4.32815   2.72766  -2.17214 
 O-O--0.6290           2.69713   2.90543  -0.4474 
 H-H1-0.1459          -0.40326   1.00615   0. 
 H-H1-0.1459          -0.36496  -0.516     0.87594 
 H-H1-0.1459          -0.34566  -0.52209  -0.88335 
 H-H-0.3572            1.90424   0.07091  -0.87936 
 H-HC-0.0997           3.93214   1.22176   2.98008 
 H-HC-0.0997           5.28092   1.59593   1.9075 
 H-HC-0.0997           3.79271   2.54059   1.8484 
 H-HC-0.0347           5.37458  -0.64325   0.89141 
 H-HC-0.0347           3.98464  -1.40332   0.17498 
 H-HC-0.0243           4.96157  -2.32476   2.35464 
 H-HC-0.0243           4.25012  -0.97572   3.18226 
 H-HC-0.0171           1.98572  -1.76405   2.56272 
 H-HC-0.0171           2.89564  -2.94811   3.43725 
 H-HA-0.1313           1.55777  -3.75419   1.2767 
 H-HA-0.1359           3.09615  -4.62838  -0.20875 
 H-HC-0.0092           5.16052  -2.69486   0.95793 
 H-HC-0.0092           5.21387  -3.478    -0.59145 
 H-HC-0.0318           6.86312  -4.376     1.00655 
 H-HC-0.0318           5.60667  -4.83704   2.10514 
 H-HC-0.0435           5.79154  -5.92441  -0.73722 
 H-HC-0.0435           4.67708  -6.44018   0.49769 
 H-HC-0.1066           6.42308  -8.25967  -1.13949 
 H-HC-0.1066           5.19946  -8.68661   0.03378 
 H-HC-0.1066           6.84134  -9.32393   0.18822 
 H-H-0.3529            8.17191  -5.83894   0.34196 
 H-HC-0.1047           11.21006  -7.59389   0.54453 
 H-HC-0.1047           10.57025  -6.27455   1.5172 
 H-HC-0.1047           10.46354  -6.19177  -0.23836 
 H-H-0.3615            5.38039  -9.01959   2.12376 
 H-H1-0.1469           4.80662  -9.23422   4.34656 
 H-H1-0.1469           5.5071   -7.65729   4.69691 
 H-H1-0.1469           6.55554  -9.05548   4.52126 
 H-H-0.3570            4.82812   0.68479  -0.81644 
 H-HC-0.1060           3.71017   3.4346   -2.70629 
 H-HC-0.1060           4.58817   1.90253  -2.82568 
 H-HC-0.1060           5.24477   3.2262   -1.87372 
 
 The following ModRedundant input section has been read:
 D    *    9   10    * F                                                       
 Stoichiometry    C20H36N4O4
 Framework group  C1[X(C20H36N4O4)]
 Deg. of freedom   186
 Full point group                 C1      NOp   1
 Largest Abelian subgroup         C1      NOp   1
 Largest concise Abelian subgroup C1      NOp   1
                         Standard orientation:                         
 ---------------------------------------------------------------------
 Center     Atomic      Atomic             Coordinates (Angstroms)
 Number     Number       Type             X           Y           Z
 ---------------------------------------------------------------------
      1          6    20001001        5.237953   -2.179771    1.735945
      2          7    20001014        4.563154   -1.051609    1.128374
      3          6    20001002        4.530454   -0.930493   -0.219354
      4          8    20001024        4.839779   -1.826137   -0.955482
      5          6    90000001        3.941314    0.378927   -0.774079
      6          6    90000002        4.388173    0.567395   -2.227570
      7          6    90000002        2.393186    0.361698   -0.653230
      8          6    90000002        1.598719   -0.732937   -1.388234
      9          6    90000002        1.474121   -2.108315   -0.703071
     10          6    20001004        0.864911   -2.054036    0.678303
     11          6    20001004        0.123185   -1.087750    1.194918
     12          6    90000002       -0.297328    0.201560    0.531138
     13          6    90000002       -1.752100    0.210115    0.028018
     14          6    90000002       -2.771059    0.014578    1.158681
     15          6    90000002       -4.275298    0.179307    0.819895
     16          6    90000002       -5.075415   -0.126577    2.096492
     17          7    20001014       -4.511903    1.559188    0.418054
     18          6    20001002       -5.719261    1.961199   -0.075638
     19          6    20001001       -5.703611    3.291402   -0.793357
     20          8    20001024       -6.721437    1.313354    0.047171
     21          6    20001002       -4.613047   -0.738203   -0.377112
     22          8    20001024       -4.400203   -0.370770   -1.501219
     23          7    20001014       -5.051382   -1.985407   -0.100841
     24          6    20001001       -5.434010   -2.878941   -1.174804
     25          7    20001014        4.366219    1.521210    0.048159
     26          6    20001002        5.669712    1.875207    0.235949
     27          6    20001001        5.883519    3.261818    0.806664
     28          8    20001024        6.582096    1.141276   -0.019082
     29          1    20001035        6.307046   -2.153212    1.559067
     30          1    20001035        4.845835   -3.101044    1.330703
     31          1    20001035        5.052962   -2.159692    2.802589
     32          1    20001029        4.523444   -0.208283    1.651356
     33          1    20001034        4.100637   -0.275448   -2.837384
     34          1    20001034        3.934862    1.467981   -2.630920
     35          1    20001034        5.463096    0.659718   -2.281822
     36          1    20001034        2.058036    1.318904   -1.046488
     37          1    20001034        2.130198    0.356795    0.399906
     38          1    20001034        0.593631   -0.344387   -1.524050
     39          1    20001034        2.002453   -0.878537   -2.384815
     40          1    20001034        2.445140   -2.582555   -0.643228
     41          1    20001034        0.874064   -2.736156   -1.352365
     42          1    20001033        1.063448   -2.911214    1.301153
     43          1    20001033       -0.232014   -1.224939    2.204260
     44          1    20001034        0.352594    0.422318   -0.306915
     45          1    20001034       -0.163115    1.016298    1.241619
     46          1    20001034       -1.919225    1.153744   -0.483849
     47          1    20001034       -1.875834   -0.560900   -0.721019
     48          1    20001034       -2.556515    0.714820    1.963149
     49          1    20001034       -2.644380   -0.979669    1.570718
     50          1    20001034       -4.845386    0.628316    2.839327
     51          1    20001034       -4.796831   -1.088619    2.513919
     52          1    20001034       -6.139488   -0.106874    1.914557
     53          1    20001029       -3.726662    2.028635    0.028532
     54          1    20001034       -6.704816    3.694239   -0.812658
     55          1    20001034       -5.373636    3.129299   -1.815102
     56          1    20001034       -5.030435    4.000606   -0.324051
     57          1    20001029       -5.435836   -2.163310    0.796852
     58          1    20001035       -5.636247   -3.855937   -0.755877
     59          1    20001035       -4.625658   -2.961144   -1.886447
     60          1    20001035       -6.316627   -2.525162   -1.697855
     61          1    20001029        3.690742    2.244133    0.160680
     62          1    20001034        6.857853    3.301660    1.271486
     63          1    20001034        5.121972    3.529843    1.530376
     64          1    20001034        5.855470    3.987219   -0.000062
 ---------------------------------------------------------------------
 Rotational constants (GHZ):      0.3336988      0.0602898      0.0560753
 Standard basis: 6-31G(d) (6D, 7F)
 There are   492 symmetry adapted basis functions of A   symmetry.
 Integral buffers will be    131072 words long.
 Raffenetti 1 integral format.
 Two-electron integral symmetry is turned on.
   492 basis functions,   928 primitive gaussians,   492 cartesian basis functions
   108 alpha electrons      108 beta electrons
       nuclear repulsion energy      2762.9277861657 Hartrees.
 NAtoms=   64 NActive=   64 NUniq=   64 SFac= 7.50D-01 NAtFMM=   80 NAOKFM=F Big=T
 One-electron integrals computed using PRISM.
 NBasis=   492 RedAO= T  NBF=   492
 NBsUse=   492 1.00D-06 NBFU=   492
 Harris functional with IExCor=  205 diagonalized for initial guess.
 ExpMin= 1.61D-01 ExpMax= 5.48D+03 ExpMxC= 8.25D+02 IAcc=1 IRadAn=         1 AccDes= 0.00D+00
 HarFok:  IExCor=  205 AccDes= 0.00D+00 IRadAn=         1 IDoV= 1
 ScaDFX=  1.000000  1.000000  1.000000  1.000000
 FoFCou: FMM=F IPFlag=           0 FMFlag=      100000 FMFlg1=           1
         NFxFlg=           0 DoJE=T BraDBF=F KetDBF=T FulRan=T
         Omega=  0.000000  0.000000  1.000000  0.000000  0.000000 ICntrl=     500 IOpCl=  0
         NMat0=    1 NMatS0=    1 NMatT0=    0 NMatD0=    1 NMtDS0=    0 NMtDT0=    0
         I1Cent=           4 NGrid=           0.
 Petite list used in FoFCou.
 Initial guess orbital symmetries:
       Occupied  (A) (A) (A) (A) (A) (A) (A) (A) (A) (A) (A) (A)
                 (A) (A) (A) (A) (A) (A) (A) (A) (A) (A) (A) (A)
                 (A) (A) (A) (A) (A) (A) (A) (A) (A) (A) (A) (A)
                 (A) (A) (A) (A) (A) (A) (A) (A) (A) (A) (A) (A)
                 (A) (A) (A) (A) (A) (A) (A) (A) (A) (A) (A) (A)
                 (A) (A) (A) (A) (A) (A) (A) (A) (A) (A) (A) (A)
                 (A) (A) (A) (A) (A) (A) (A) (A) (A) (A) (A) (A)
                 (A) (A) (A) (A) (A) (A) (A) (A) (A) (A) (A) (A)
                 (A) (A) (A) (A) (A) (A) (A) (A) (A) (A) (A) (A)
       Virtual   (A) (A) (A) (A) (A) (A) (A) (A) (A) (A) (A) (A)
                 (A) (A) (A) (A) (A) (A) (A) (A) (A) (A) (A) (A)
                 (A) (A) (A) (A) (A) (A) (A) (A) (A) (A) (A) (A)
                 (A) (A) (A) (A) (A) (A) (A) (A) (A) (A) (A) (A)
                 (A) (A) (A) (A) (A) (A) (A) (A) (A) (A) (A) (A)
                 (A) (A) (A) (A) (A) (A) (A) (A) (A) (A) (A) (A)
                 (A) (A) (A) (A) (A) (A) (A) (A) (A) (A) (A) (A)
                 (A) (A) (A) (A) (A) (A) (A) (A) (A) (A) (A) (A)
                 (A) (A) (A) (A) (A) (A) (A) (A) (A) (A) (A) (A)
                 (A) (A) (A) (A) (A) (A) (A) (A) (A) (A) (A) (A)
                 (A) (A) (A) (A) (A) (A) (A) (A) (A) (A) (A) (A)
                 (A) (A) (A) (A) (A) (A) (A) (A) (A) (A) (A) (A)
                 (A) (A) (A) (A) (A) (A) (A) (A) (A) (A) (A) (A)
                 (A) (A) (A) (A) (A) (A) (A) (A) (A) (A) (A) (A)
                 (A) (A) (A) (A) (A) (A) (A) (A) (A) (A) (A) (A)
                 (A) (A) (A) (A) (A) (A) (A) (A) (A) (A) (A) (A)
                 (A) (A) (A) (A) (A) (A) (A) (A) (A) (A) (A) (A)
                 (A) (A) (A) (A) (A) (A) (A) (A) (A) (A) (A) (A)
                 (A) (A) (A) (A) (A) (A) (A) (A) (A) (A) (A) (A)
                 (A) (A) (A) (A) (A) (A) (A) (A) (A) (A) (A) (A)
                 (A) (A) (A) (A) (A) (A) (A) (A) (A) (A) (A) (A)
                 (A) (A) (A) (A) (A) (A) (A) (A) (A) (A) (A) (A)
                 (A) (A) (A) (A) (A) (A) (A) (A) (A) (A) (A) (A)
                 (A) (A) (A) (A) (A) (A) (A) (A) (A) (A) (A) (A)
                 (A) (A) (A) (A) (A) (A) (A) (A) (A) (A) (A) (A)
                 (A) (A) (A) (A) (A) (A) (A) (A) (A) (A) (A) (A)
                 (A) (A) (A) (A) (A) (A) (A) (A) (A) (A) (A) (A)
                 (A) (A) (A) (A) (A) (A) (A) (A) (A) (A) (A) (A)
                 (A) (A) (A) (A) (A) (A) (A) (A) (A) (A) (A) (A)
                 (A) (A) (A) (A) (A) (A) (A) (A) (A) (A) (A) (A)
                 (A) (A) (A) (A) (A) (A) (A) (A) (A) (A) (A) (A)
                 (A) (A) (A) (A) (A) (A) (A) (A) (A) (A) (A) (A)
 The electronic state of the initial guess is 1-A.
 Requested convergence on RMS density matrix=1.00D-08 within 128 cycles.
 Requested convergence on MAX density matrix=1.00D-06.
 Requested convergence on             energy=1.00D-06.
 No special actions if energy rises.
 Integral accuracy reduced to 1.0D-05 until final iterations.
 Initial convergence to 1.0D-05 achieved.  Increase integral accuracy.
 SCF Done:  E(RHF) =  -1295.58799777     A.U. after   14 cycles
             Convg  =    0.5958D-08             -V/T =  2.0011

 **********************************************************************

            Population analysis using the SCF density.

 **********************************************************************

 Orbital symmetries:
       Occupied  (A) (A) (A) (A) (A) (A) (A) (A) (A) (A) (A) (A)
                 (A) (A) (A) (A) (A) (A) (A) (A) (A) (A) (A) (A)
                 (A) (A) (A) (A) (A) (A) (A) (A) (A) (A) (A) (A)
                 (A) (A) (A) (A) (A) (A) (A) (A) (A) (A) (A) (A)
                 (A) (A) (A) (A) (A) (A) (A) (A) (A) (A) (A) (A)
                 (A) (A) (A) (A) (A) (A) (A) (A) (A) (A) (A) (A)
                 (A) (A) (A) (A) (A) (A) (A) (A) (A) (A) (A) (A)
                 (A) (A) (A) (A) (A) (A) (A) (A) (A) (A) (A) (A)
                 (A) (A) (A) (A) (A) (A) (A) (A) (A) (A) (A) (A)
       Virtual   (A) (A) (A) (A) (A) (A) (A) (A) (A) (A) (A) (A)
                 (A) (A) (A) (A) (A) (A) (A) (A) (A) (A) (A) (A)
                 (A) (A) (A) (A) (A) (A) (A) (A) (A) (A) (A) (A)
                 (A) (A) (A) (A) (A) (A) (A) (A) (A) (A) (A) (A)
                 (A) (A) (A) (A) (A) (A) (A) (A) (A) (A) (A) (A)
                 (A) (A) (A) (A) (A) (A) (A) (A) (A) (A) (A) (A)
                 (A) (A) (A) (A) (A) (A) (A) (A) (A) (A) (A) (A)
                 (A) (A) (A) (A) (A) (A) (A) (A) (A) (A) (A) (A)
                 (A) (A) (A) (A) (A) (A) (A) (A) (A) (A) (A) (A)
                 (A) (A) (A) (A) (A) (A) (A) (A) (A) (A) (A) (A)
                 (A) (A) (A) (A) (A) (A) (A) (A) (A) (A) (A) (A)
                 (A) (A) (A) (A) (A) (A) (A) (A) (A) (A) (A) (A)
                 (A) (A) (A) (A) (A) (A) (A) (A) (A) (A) (A) (A)
                 (A) (A) (A) (A) (A) (A) (A) (A) (A) (A) (A) (A)
                 (A) (A) (A) (A) (A) (A) (A) (A) (A) (A) (A) (A)
                 (A) (A) (A) (A) (A) (A) (A) (A) (A) (A) (A) (A)
                 (A) (A) (A) (A) (A) (A) (A) (A) (A) (A) (A) (A)
                 (A) (A) (A) (A) (A) (A) (A) (A) (A) (A) (A) (A)
                 (A) (A) (A) (A) (A) (A) (A) (A) (A) (A) (A) (A)
                 (A) (A) (A) (A) (A) (A) (A) (A) (A) (A) (A) (A)
                 (A) (A) (A) (A) (A) (A) (A) (A) (A) (A) (A) (A)
                 (A) (A) (A) (A) (A) (A) (A) (A) (A) (A) (A) (A)
                 (A) (A) (A) (A) (A) (A) (A) (A) (A) (A) (A) (A)
                 (A) (A) (A) (A) (A) (A) (A) (A) (A) (A) (A) (A)
                 (A) (A) (A) (A) (A) (A) (A) (A) (A) (A) (A) (A)
                 (A) (A) (A) (A) (A) (A) (A) (A) (A) (A) (A) (A)
                 (A) (A) (A) (A) (A) (A) (A) (A) (A) (A) (A) (A)
                 (A) (A) (A) (A) (A) (A) (A) (A) (A) (A) (A) (A)
                 (A) (A) (A) (A) (A) (A) (A) (A) (A) (A) (A) (A)
                 (A) (A) (A) (A) (A) (A) (A) (A) (A) (A) (A) (A)
                 (A) (A) (A) (A) (A) (A) (A) (A) (A) (A) (A) (A)
                 (A) (A) (A) (A) (A) (A) (A) (A) (A) (A) (A) (A)
 The electronic state is 1-A.
 Alpha  occ. eigenvalues --  -20.53607 -20.52332 -20.51905 -20.51708 -15.59572
 Alpha  occ. eigenvalues --  -15.58187 -15.57824 -15.57263 -11.35934 -11.34543
 Alpha  occ. eigenvalues --  -11.33980 -11.33727 -11.28973 -11.28831 -11.25273
 Alpha  occ. eigenvalues --  -11.24764 -11.24346 -11.23899 -11.23684 -11.22821
 Alpha  occ. eigenvalues --  -11.22722 -11.22582 -11.22546 -11.22210 -11.22110
 Alpha  occ. eigenvalues --  -11.22045 -11.21989 -11.20786  -1.40538  -1.39663
 Alpha  occ. eigenvalues --   -1.38575  -1.38389  -1.25374  -1.23844  -1.22902
 Alpha  occ. eigenvalues --   -1.21865  -1.11949  -1.09206  -1.07251  -1.04135
 Alpha  occ. eigenvalues --   -1.01447  -0.99352  -0.99005  -0.96285  -0.95365
 Alpha  occ. eigenvalues --   -0.94981  -0.92257  -0.87831  -0.85529  -0.82886
 Alpha  occ. eigenvalues --   -0.81403  -0.79791  -0.79138  -0.77167  -0.76994
 Alpha  occ. eigenvalues --   -0.73217  -0.71810  -0.70990  -0.68870  -0.68173
 Alpha  occ. eigenvalues --   -0.67544  -0.65399  -0.64664  -0.63875  -0.63638
 Alpha  occ. eigenvalues --   -0.62988  -0.62404  -0.61902  -0.61633  -0.61422
 Alpha  occ. eigenvalues --   -0.60757  -0.60410  -0.59537  -0.59037  -0.58871
 Alpha  occ. eigenvalues --   -0.57928  -0.57726  -0.56876  -0.56674  -0.56182
 Alpha  occ. eigenvalues --   -0.55760  -0.55345  -0.55025  -0.54924  -0.54400
 Alpha  occ. eigenvalues --   -0.53574  -0.53179  -0.52323  -0.52152  -0.51879
 Alpha  occ. eigenvalues --   -0.51025  -0.50571  -0.49877  -0.49746  -0.48774
 Alpha  occ. eigenvalues --   -0.48268  -0.47272  -0.45285  -0.44008  -0.42844
 Alpha  occ. eigenvalues --   -0.41915  -0.41790  -0.41342  -0.39201  -0.39131
 Alpha  occ. eigenvalues --   -0.38578  -0.38175  -0.34696
 Alpha virt. eigenvalues --    0.17541   0.18853   0.19366   0.19899   0.20255
 Alpha virt. eigenvalues --    0.21316   0.21758   0.22959   0.23333   0.24203
 Alpha virt. eigenvalues --    0.25043   0.25776   0.26547   0.26826   0.27311
 Alpha virt. eigenvalues --    0.27680   0.28374   0.28685   0.29167   0.29392
 Alpha virt. eigenvalues --    0.29718   0.30654   0.30855   0.30992   0.31890
 Alpha virt. eigenvalues --    0.32161   0.32304   0.32749   0.32964   0.33506
 Alpha virt. eigenvalues --    0.33988   0.34175   0.34324   0.34625   0.34970
 Alpha virt. eigenvalues --    0.35168   0.36177   0.36656   0.37321   0.37373
 Alpha virt. eigenvalues --    0.38323   0.38542   0.39236   0.39484   0.40459
 Alpha virt. eigenvalues --    0.41125   0.42016   0.42232   0.42906   0.44093
 Alpha virt. eigenvalues --    0.44715   0.44825   0.46259   0.46859   0.47724
 Alpha virt. eigenvalues --    0.48649   0.49037   0.51962   0.52428   0.52878
 Alpha virt. eigenvalues --    0.53936   0.56913   0.57708   0.59395   0.60050
 Alpha virt. eigenvalues --    0.63065   0.63281   0.64560   0.69279   0.70312
 Alpha virt. eigenvalues --    0.70688   0.70998   0.71977   0.72541   0.72887
 Alpha virt. eigenvalues --    0.73779   0.74389   0.75065   0.75707   0.76255
 Alpha virt. eigenvalues --    0.76761   0.77233   0.78141   0.78312   0.79204
 Alpha virt. eigenvalues --    0.79662   0.80063   0.81097   0.81709   0.82862
 Alpha virt. eigenvalues --    0.83384   0.83756   0.85127   0.86095   0.88035
 Alpha virt. eigenvalues --    0.88353   0.88629   0.89552   0.89989   0.90484
 Alpha virt. eigenvalues --    0.91344   0.92167   0.92954   0.93378   0.94321
 Alpha virt. eigenvalues --    0.95952   0.96468   0.97033   0.97511   0.98318
 Alpha virt. eigenvalues --    0.98816   0.99335   1.00025   1.00788   1.01393
 Alpha virt. eigenvalues --    1.02187   1.02307   1.03139   1.03508   1.04383
 Alpha virt. eigenvalues --    1.04987   1.05727   1.06310   1.07192   1.07544
 Alpha virt. eigenvalues --    1.08065   1.09394   1.09794   1.10607   1.11622
 Alpha virt. eigenvalues --    1.11913   1.12744   1.13254   1.13329   1.14064
 Alpha virt. eigenvalues --    1.14240   1.14386   1.14822   1.15297   1.15884
 Alpha virt. eigenvalues --    1.16098   1.16693   1.17520   1.17896   1.18097
 Alpha virt. eigenvalues --    1.18316   1.18899   1.19129   1.19519   1.19775
 Alpha virt. eigenvalues --    1.20218   1.20329   1.20965   1.21300   1.21496
 Alpha virt. eigenvalues --    1.21801   1.22215   1.22367   1.22832   1.23010
 Alpha virt. eigenvalues --    1.23441   1.24177   1.24798   1.26100   1.26646
 Alpha virt. eigenvalues --    1.27230   1.27893   1.28802   1.29269   1.29484
 Alpha virt. eigenvalues --    1.30138   1.31339   1.32330   1.33078   1.33897
 Alpha virt. eigenvalues --    1.35070   1.35487   1.36272   1.37874   1.38292
 Alpha virt. eigenvalues --    1.39632   1.39973   1.42027   1.42531   1.42685
 Alpha virt. eigenvalues --    1.44361   1.45605   1.47303   1.48061   1.48535
 Alpha virt. eigenvalues --    1.49536   1.52217   1.54150   1.54790   1.56323
 Alpha virt. eigenvalues --    1.56856   1.59036   1.59331   1.60999   1.61406
 Alpha virt. eigenvalues --    1.62185   1.64408   1.64541   1.66632   1.67786
 Alpha virt. eigenvalues --    1.69055   1.70385   1.72156   1.73348   1.73463
 Alpha virt. eigenvalues --    1.74554   1.75466   1.77285   1.78073   1.79999
 Alpha virt. eigenvalues --    1.80597   1.81798   1.82862   1.86054   1.87907
 Alpha virt. eigenvalues --    1.89546   1.91164   1.91283   1.94066   1.95674
 Alpha virt. eigenvalues --    1.96938   1.97810   1.98910   2.01021   2.01978
 Alpha virt. eigenvalues --    2.04716   2.05543   2.06567   2.06706   2.07948
 Alpha virt. eigenvalues --    2.09988   2.10877   2.11909   2.12113   2.12497
 Alpha virt. eigenvalues --    2.13084   2.13925   2.15043   2.15999   2.16556
 Alpha virt. eigenvalues --    2.16842   2.17852   2.18954   2.19155   2.19674
 Alpha virt. eigenvalues --    2.20065   2.21163   2.22282   2.22701   2.24154
 Alpha virt. eigenvalues --    2.24482   2.25510   2.26572   2.27476   2.28084
 Alpha virt. eigenvalues --    2.28921   2.29381   2.29741   2.30841   2.31572
 Alpha virt. eigenvalues --    2.32530   2.33561   2.34022   2.35091   2.35937
 Alpha virt. eigenvalues --    2.36806   2.37080   2.38231   2.38920   2.39258
 Alpha virt. eigenvalues --    2.41581   2.41910   2.42393   2.43863   2.44765
 Alpha virt. eigenvalues --    2.45393   2.47821   2.48227   2.49661   2.50792
 Alpha virt. eigenvalues --    2.51971   2.53576   2.54947   2.55123   2.55971
 Alpha virt. eigenvalues --    2.56955   2.57121   2.58732   2.59777   2.62133
 Alpha virt. eigenvalues --    2.62812   2.63318   2.64223   2.64613   2.65327
 Alpha virt. eigenvalues --    2.66801   2.68936   2.69719   2.70335   2.71075
 Alpha virt. eigenvalues --    2.72200   2.73230   2.73609   2.75374   2.75916
 Alpha virt. eigenvalues --    2.76893   2.77671   2.78613   2.79234   2.80124
 Alpha virt. eigenvalues --    2.82063   2.83183   2.84226   2.85078   2.86416
 Alpha virt. eigenvalues --    2.88256   2.88723   2.90101   2.93072   2.95675
 Alpha virt. eigenvalues --    2.96717   2.97690   2.98129   2.98425   3.01569
 Alpha virt. eigenvalues --    3.02576   3.04958   3.05862   3.06361   3.08391
 Alpha virt. eigenvalues --    3.11227   3.11738   3.12992   3.14014   3.15901
 Alpha virt. eigenvalues --    3.18708   3.21028   3.25094   3.29545   3.30534
 Alpha virt. eigenvalues --    3.34142   3.34796   3.38823   3.40289   3.41791
 Alpha virt. eigenvalues --    3.42418   3.43241   3.53514   3.55441   3.57308
 Alpha virt. eigenvalues --    3.60256   4.38163   4.40759   4.44463   4.47250
 Alpha virt. eigenvalues --    4.49003   4.51671   4.55947   4.59182   4.60636
 Alpha virt. eigenvalues --    4.64103   4.66876   4.67038   4.68602   4.69967
 Alpha virt. eigenvalues --    4.72157   4.76360   4.79408   4.81637   4.85034
 Alpha virt. eigenvalues --    4.86995   4.89464   4.93121   4.94600   5.02482
 Alpha virt. eigenvalues --    5.03831   5.12193   5.22853   5.23835
          Condensed to atoms (all electrons):
 Mulliken atomic charges:
              1
     1  C   -0.278359
     2  N   -0.778080
     3  C    0.823077
     4  O   -0.631263
     5  C    0.112750
     6  C   -0.471855
     7  C   -0.361627
     8  C   -0.378110
     9  C   -0.343693
    10  C   -0.168267
    11  C   -0.186776
    12  C   -0.363853
    13  C   -0.304754
    14  C   -0.327862
    15  C    0.090449
    16  C   -0.509795
    17  N   -0.787664
    18  C    0.767453
    19  C   -0.595688
    20  O   -0.613206
    21  C    0.820705
    22  O   -0.640429
    23  N   -0.805918
    24  C   -0.275441
    25  N   -0.843518
    26  C    0.745292
    27  C   -0.588560
    28  O   -0.592050
    29  H    0.185748
    30  H    0.194972
    31  H    0.162835
    32  H    0.391079
    33  H    0.198649
    34  H    0.143137
    35  H    0.211917
    36  H    0.162397
    37  H    0.208685
    38  H    0.198676
    39  H    0.189181
    40  H    0.212537
    41  H    0.180444
    42  H    0.177632
    43  H    0.172490
    44  H    0.174431
    45  H    0.151290
    46  H    0.147461
    47  H    0.195371
    48  H    0.173306
    49  H    0.186159
    50  H    0.183580
    51  H    0.149204
    52  H    0.226957
    53  H    0.388896
    54  H    0.212009
    55  H    0.209007
    56  H    0.175510
    57  H    0.396009
    58  H    0.165772
    59  H    0.197970
    60  H    0.185549
    61  H    0.381590
    62  H    0.218700
    63  H    0.176866
    64  H    0.201027
 Sum of Mulliken atomic charges =   0.00000
 Mulliken charges with hydrogens summed into heavy atoms:
              1
     1  C    0.265197
     2  N   -0.387001
     3  C    0.823077
     4  O   -0.631263
     5  C    0.112750
     6  C    0.081847
     7  C    0.009455
     8  C    0.009747
     9  C    0.049289
    10  C    0.009365
    11  C   -0.014286
    12  C   -0.038133
    13  C    0.038077
    14  C    0.031602
    15  C    0.090449
    16  C    0.049947
    17  N   -0.398768
    18  C    0.767453
    19  C    0.000838
    20  O   -0.613206
    21  C    0.820705
    22  O   -0.640429
    23  N   -0.409910
    24  C    0.273849
    25  N   -0.461928
    26  C    0.745292
    27  C    0.008033
    28  O   -0.592050
 Sum of Mulliken charges with hydrogens summed into heavy atoms =   0.00000
 Electronic spatial extent (au):  <R**2>=          18934.0160
 Charge=              0.0000 electrons
 Dipole moment (field-independent basis, Debye):
    X=             -0.7868    Y=              3.5075    Z=              4.4634  Tot=              5.7309
 Quadrupole moment (field-independent basis, Debye-Ang):
   XX=           -230.3001   YY=           -150.4854   ZZ=           -170.1446
   XY=             26.0280   XZ=              6.7484   YZ=             -6.0630
 Traceless Quadrupole moment (field-independent basis, Debye-Ang):
   XX=            -46.6567   YY=             33.1580   ZZ=             13.4988
   XY=             26.0280   XZ=              6.7484   YZ=             -6.0630
 Octapole moment (field-independent basis, Debye-Ang**2):
  XXX=            -56.7863  YYY=             38.7415  ZZZ=             10.5803  XYY=            -36.2883
  XXY=             10.3703  XXZ=            120.1876  XZZ=             20.9023  YZZ=             -1.2846
  YYZ=              3.7274  XYZ=             -2.1759
 Hexadecapole moment (field-independent basis, Debye-Ang**3):
 XXXX=         -24133.3704 YYYY=          -2895.2767 ZZZZ=          -1430.1244 XXXY=            850.7214
 XXXZ=            412.2439 YYYX=            145.5408 YYYZ=            -22.0827 ZZZX=             32.4061
 ZZZY=             -0.2866 XXYY=          -3308.1920 XXZZ=          -3528.2489 YYZZ=           -732.9273
 XXYZ=           -165.1419 YYXZ=            148.4808 ZZXY=             22.2226
 N-N= 2.762927786166D+03 E-N=-8.557658108018D+03  KE= 1.294163928278D+03
 1\1\GINC-MOSURA\SP\RHF\6-31G(d)\C20H36N4O4\MARIE\05-Dec-2019\0\\#SP HF
 /6-31G* Geom=(ModRedundant)\\paramfit run\\0,1\C,0,0.,0.,0.\N,0,1.4481
 87,0.,0.\C,0,2.1232,0.47592,1.072365\O,0,1.590179,0.696732,2.124447\C,
 0,3.650505,0.594143,0.921539\C,0,4.198902,1.549248,1.986845\C,0,4.3077
 51,-0.809116,1.023981\C,0,4.133566,-1.622781,2.319066\C,0,2.832729,-2.
 433298,2.484965\C,0,2.579342,-3.423586,1.372579\C,0,3.46097,-3.923675,
 0.52205\C,0,4.939788,-3.627068,0.452222\C,0,5.835399,-4.725222,1.05347
 4\C,0,5.683511,-6.072733,0.335103\C,0,6.654889,-7.217849,0.722119\C,0,
 6.253842,-8.461256,-0.08816\N,0,8.008676,-6.819598,0.361305\C,0,9.0915
 55,-7.571075,0.715867\C,0,10.421624,-6.860075,0.614869\O,0,9.002325,-8
 .710401,1.080717\C,0,6.599703,-7.412635,2.254352\O,0,7.258369,-6.71517
 1,2.977975\N,0,5.716451,-8.313885,2.735596\C,0,5.649233,-8.582178,4.15
 7462\N,0,3.997412,1.070275,-0.425452\C,0,3.587019,2.267163,-0.934086\C
 ,0,4.328148,2.727659,-2.172145\O,0,2.697134,2.905425,-0.447397\H,0,-0.
 403259,1.006147,0.\H,0,-0.36496,-0.516002,0.875939\H,0,-0.345658,-0.52
 2086,-0.883346\H,0,1.904244,0.070913,-0.879357\H,0,3.932135,1.22176,2.
 980082\H,0,5.28092,1.595925,1.9075\H,0,3.792711,2.540594,1.848395\H,0,
 5.374584,-0.64325,0.891407\H,0,3.984642,-1.403324,0.174983\H,0,4.96156
 5,-2.324757,2.354635\H,0,4.250121,-0.975721,3.182259\H,0,1.985724,-1.7
 64045,2.562723\H,0,2.895638,-2.94811,3.437249\H,0,1.557765,-3.754193,1
 .276695\H,0,3.096148,-4.628376,-0.208745\H,0,5.16052,-2.694864,0.95792
 8\H,0,5.21387,-3.478002,-0.591451\H,0,6.863124,-4.376002,1.006552\H,0,
 5.606671,-4.837044,2.105144\H,0,5.791536,-5.92441,-0.737215\H,0,4.6770
 83,-6.44018,0.49769\H,0,6.423083,-8.259667,-1.139492\H,0,5.199459,-8.6
 86613,0.033784\H,0,6.841337,-9.323929,0.188218\H,0,8.171911,-5.838939,
 0.341955\H,0,11.210061,-7.593887,0.544532\H,0,10.570249,-6.274547,1.51
 7195\H,0,10.463539,-6.191767,-0.238355\H,0,5.380385,-9.019593,2.123759
 \H,0,4.806615,-9.23422,4.346559\H,0,5.507096,-7.657288,4.696907\H,0,6.
 555539,-9.05548,4.521262\H,0,4.82812,0.684785,-0.816437\H,0,3.710173,3
 .434604,-2.706288\H,0,4.588171,1.902533,-2.825678\H,0,5.244771,3.22620
 1,-1.873716\\Version=EM64L-G09RevA.02\State=1-A\HF=-1295.5879978\RMSD=
 5.958e-09\Dipole=0.4825177,-0.4077879,-2.1644094\Quadrupole=0.0550211,
 -13.0878526,13.0328314,33.0652974,-1.5902188,-10.459499\PG=C01 [X(C20H
 36N4O4)]\\@


 There are more things in heaven and earth, Horatio,
 than are dreamt of in your philosophy.
                   -- Hamlet, Act I, Scene 5
 The chemist is a guest at the physicist's table and
 frequently dines well.
                   -- Richard Bersohn
 Job cpu time:  0 days  0 hours  5 minutes 58.8 seconds.
 File lengths (MBytes):  RWF=    132 Int=      0 D2E=      0 Chk=     10 Scr=      1
 Normal termination of Gaussian 09 at Thu Dec  5 17:53:15 2019.
