 Entering Gaussian System, Link 0=g09
 Input=CHI4_-170.gau
 Output=CHI4_-170.log
 Initial command:
 /home/marie/Utilities//g09/l1.exe /tmp/g09/Gau-6158.inp -scrdir=/tmp/g09/
 Entering Link 1 = /home/marie/Utilities//g09/l1.exe PID=      6160.
  
 Copyright (c) 1988,1990,1992,1993,1995,1998,2003,2009, Gaussian, Inc.
                  All Rights Reserved.
  
 This is part of the Gaussian(R) 09 program.  It is based on
 the Gaussian(R) 03 system (copyright 2003, Gaussian, Inc.),
 the Gaussian(R) 98 system (copyright 1998, Gaussian, Inc.),
 the Gaussian(R) 94 system (copyright 1995, Gaussian, Inc.),
 the Gaussian 92(TM) system (copyright 1992, Gaussian, Inc.),
 the Gaussian 90(TM) system (copyright 1990, Gaussian, Inc.),
 the Gaussian 88(TM) system (copyright 1988, Gaussian, Inc.),
 the Gaussian 86(TM) system (copyright 1986, Carnegie Mellon
 University), and the Gaussian 82(TM) system (copyright 1983,
 Carnegie Mellon University). Gaussian is a federally registered
 trademark of Gaussian, Inc.
  
 This software contains proprietary and confidential information,
 including trade secrets, belonging to Gaussian, Inc.
  
 This software is provided under written license and may be
 used, copied, transmitted, or stored only in accord with that
 written license.
  
 The following legend is applicable only to US Government
 contracts under FAR:
  
                    RESTRICTED RIGHTS LEGEND
  
 Use, reproduction and disclosure by the US Government is
 subject to restrictions as set forth in subparagraphs (a)
 and (c) of the Commercial Computer Software - Restricted
 Rights clause in FAR 52.227-19.
  
 Gaussian, Inc.
 340 Quinnipiac St., Bldg. 40, Wallingford CT 06492
  
  
 ---------------------------------------------------------------
 Warning -- This program may not be used in any manner that
 competes with the business of Gaussian, Inc. or will provide
 assistance to any competitor of Gaussian, Inc.  The licensee
 of this program is prohibited from giving any competitor of
 Gaussian, Inc. access to this program.  By using this program,
 the user acknowledges that Gaussian, Inc. is engaged in the
 business of creating and licensing software in the field of
 computational chemistry and represents and warrants to the
 licensee that it is not a competitor of Gaussian, Inc. and that
 it will not use this program in any manner prohibited above.
 ---------------------------------------------------------------
  

 Cite this work as:
 Gaussian 09, Revision A.02,
 M. J. Frisch, G. W. Trucks, H. B. Schlegel, G. E. Scuseria, 
 M. A. Robb, J. R. Cheeseman, G. Scalmani, V. Barone, B. Mennucci, 
 G. A. Petersson, H. Nakatsuji, M. Caricato, X. Li, H. P. Hratchian, 
 A. F. Izmaylov, J. Bloino, G. Zheng, J. L. Sonnenberg, M. Hada, 
 M. Ehara, K. Toyota, R. Fukuda, J. Hasegawa, M. Ishida, T. Nakajima, 
 Y. Honda, O. Kitao, H. Nakai, T. Vreven, J. A. Montgomery, Jr., 
 J. E. Peralta, F. Ogliaro, M. Bearpark, J. J. Heyd, E. Brothers, 
 K. N. Kudin, V. N. Staroverov, R. Kobayashi, J. Normand, 
 K. Raghavachari, A. Rendell, J. C. Burant, S. S. Iyengar, J. Tomasi, 
 M. Cossi, N. Rega, J. M. Millam, M. Klene, J. E. Knox, J. B. Cross, 
 V. Bakken, C. Adamo, J. Jaramillo, R. Gomperts, R. E. Stratmann, 
 O. Yazyev, A. J. Austin, R. Cammi, C. Pomelli, J. W. Ochterski, 
 R. L. Martin, K. Morokuma, V. G. Zakrzewski, G. A. Voth, 
 P. Salvador, J. J. Dannenberg, S. Dapprich, A. D. Daniels, 
 O. Farkas, J. B. Foresman, J. V. Ortiz, J. Cioslowski, 
 and D. J. Fox, Gaussian, Inc., Wallingford CT, 2009.
 
 ******************************************
 Gaussian 09:  EM64L-G09RevA.02 11-Jun-2009
                 5-Dec-2019 
 ******************************************
 %chk=CHI4_-170
 %NoSave
 ---------------------------------
 #SP HF/6-31G* Geom=(ModRedundant)
 ---------------------------------
 1/18=120,38=1/1;
 2/12=2,17=6,18=5,40=1/2;
 3/5=1,6=6,7=1,11=9,16=1,25=1,30=1/1,2,3;
 4//1;
 5/5=2,38=5/2;
 6/7=2,8=2,9=2,10=2,28=1/1;
 99/5=1,9=1/99;
 ------------
 paramfit run
 ------------
 Symbolic Z-matrix:
 Charge =  0 Multiplicity = 1
 C-CT--0.3208          0.        0.        0. 
 N-N--0.5622           1.44819   0.        0. 
 C-C-0.8053            2.1232    0.47592   1.07237 
 O-O--0.6151           1.59018   0.69673   2.12445 
 C-CX-0.0839           3.65051   0.59414   0.92154 
 C-CU--0.3230          4.1989    1.54925   1.98685 
 C-CU--0.0657          4.30775  -0.80912   1.02398 
 C-CU--0.0109          4.13357  -1.62278   2.31907 
 C-CU-0.0816           2.83273  -2.4333    2.48497 
 C-CM--0.2354          2.57934  -3.42359   1.37258 
 C-CM--0.2653          1.47559  -4.11752   1.14686 
 C-CU-0.1214           0.19529  -4.09196   1.94682 
 C-CU--0.0354         -0.93781  -3.27262   1.30316 
 C-CU--0.0984         -1.35739  -3.81765  -0.06863 
 C-CU-0.1300          -2.60526  -3.19674  -0.74828 
 C-CU--0.3561         -2.76941  -3.86875  -2.1212 
 N-N--0.7186          -3.77243  -3.48314   0.07464 
 C-C-0.8537           -4.99192  -2.93613  -0.20231 
 C-CT--0.3868         -5.99471  -3.00947   0.92634 
 O-O--0.6323          -5.25542  -2.4337   -1.25931 
 C-C-0.7903           -2.42023  -1.66351  -0.80911 
 O-O--0.6136          -2.69572  -0.98172   0.14125 
 N-N--0.5650          -1.84843  -1.14934  -1.91937 
 C-CT--0.3231         -1.69215   0.28355  -2.06288 
 N-N--0.7191           3.99741   1.07028  -0.42545 
 C-C-0.8539            3.58702   2.26716  -0.93409 
 C-CT--0.3903          4.32815   2.72766  -2.17214 
 O-O--0.6290           2.69713   2.90543  -0.4474 
 H-H1-0.1459          -0.40326   1.00615   0. 
 H-H1-0.1459          -0.36496  -0.516     0.87594 
 H-H1-0.1459          -0.34566  -0.52209  -0.88335 
 H-H-0.3572            1.90424   0.07091  -0.87936 
 H-HC-0.0997           3.93214   1.22176   2.98008 
 H-HC-0.0997           5.28092   1.59593   1.9075 
 H-HC-0.0997           3.79271   2.54059   1.8484 
 H-HC-0.0347           5.37458  -0.64325   0.89141 
 H-HC-0.0347           3.98464  -1.40332   0.17498 
 H-HC-0.0243           4.96157  -2.32476   2.35464 
 H-HC-0.0243           4.25012  -0.97572   3.18226 
 H-HC-0.0171           1.98572  -1.76405   2.56272 
 H-HC-0.0171           2.89564  -2.94811   3.43725 
 H-HA-0.1313           3.40135  -3.56692   0.69003 
 H-HA-0.1359           1.47466  -4.77888   0.29459 
 H-HC-0.0092           0.37926  -3.69583   2.93814 
 H-HC-0.0092          -0.14476  -5.11711   2.08837 
 H-HC-0.0318          -1.77784  -3.27215   1.99216 
 H-HC-0.0318          -0.62595  -2.24039   1.21322 
 H-HC-0.0435          -1.5472   -4.88598   0.01 
 H-HC-0.0435          -0.52826  -3.69961  -0.75636 
 H-HC-0.1066          -2.9949   -4.91786  -1.9692 
 H-HC-0.1066          -1.8519   -3.81391  -2.69787 
 H-HC-0.1066          -3.57744  -3.42901  -2.6864 
 H-H-0.3529           -3.58723  -3.61689   1.04238 
 H-HC-0.1047          -6.99034  -2.91082   0.52131 
 H-HC-0.1047          -5.81166  -2.18259   1.60597 
 H-HC-0.1047          -5.91438  -3.93611   1.48425 
 H-H-0.3615           -1.86081  -1.69055  -2.75139 
 H-H1-0.1469          -1.11022   0.48012  -2.95374 
 H-H1-0.1469          -1.16919   0.68116  -1.20553 
 H-H1-0.1469          -2.65012   0.78701  -2.14397 
 H-H-0.3570            4.82812   0.68479  -0.81644 
 H-HC-0.1060           3.71017   3.4346   -2.70629 
 H-HC-0.1060           4.58817   1.90253  -2.82568 
 H-HC-0.1060           5.24477   3.2262   -1.87372 
 
 The following ModRedundant input section has been read:
 D    *    9   10    * F                                                       
 Stoichiometry    C20H36N4O4
 Framework group  C1[X(C20H36N4O4)]
 Deg. of freedom   186
 Full point group                 C1      NOp   1
 Largest Abelian subgroup         C1      NOp   1
 Largest concise Abelian subgroup C1      NOp   1
                         Standard orientation:                         
 ---------------------------------------------------------------------
 Center     Atomic      Atomic             Coordinates (Angstroms)
 Number     Number       Type             X           Y           Z
 ---------------------------------------------------------------------
      1          6    20001001        0.305338   -1.059157   -0.539547
      2          7    20001014        1.588648   -0.616747   -0.034932
      3          6    20001002        2.510953   -0.110918   -0.886753
      4          8    20001024        2.245360    0.201051   -2.014530
      5          6    90000001        3.902498    0.177456   -0.295288
      6          6    90000002        4.928535    0.288200   -1.427906
      7          6    90000002        3.860881    1.471459    0.562282
      8          6    90000002        3.470252    2.800383   -0.109288
      9          6    90000002        1.967923    3.099055   -0.283751
     10          6    20001004        1.182617    3.075780    1.006609
     11          6    20001004       -0.132150    3.111849    1.150988
     12          6    90000002       -1.173840    3.186352    0.060536
     13          6    90000002       -1.872903    1.848339   -0.240458
     14          6    90000002       -2.630526    1.290024    0.971650
     15          6    90000002       -3.524663    0.040981    0.759388
     16          6    90000002       -4.113466   -0.346680    2.125580
     17          7    20001014       -4.604817    0.393185   -0.152067
     18          6    20001002       -5.466289   -0.549029   -0.634930
     19          6    20001001       -6.273381   -0.118054   -1.838121
     20          8    20001024       -5.580044   -1.638791   -0.146444
     21          6    20001002       -2.673673   -1.066024    0.096757
     22          8    20001024       -2.512973   -1.075724   -1.094045
     23          7    20001014       -2.047331   -1.941475    0.912395
     24          6    20001001       -1.275584   -3.033595    0.355726
     25          7    20001014        4.288303   -0.882097    0.648075
     26          6    20001002        4.414087   -2.194998    0.301461
     27          6    20001001        5.153232   -3.056667    1.304113
     28          8    20001024        3.963545   -2.641175   -0.715435
     29          1    20001035        0.402892   -1.921719   -1.188715
     30          1    20001035       -0.162357   -0.261057   -1.097239
     31          1    20001035       -0.326775   -1.315989    0.301181
     32          1    20001029        1.935487   -1.062013    0.782214
     33          1    20001034        4.645004    1.048795   -2.139270
     34          1    20001034        5.900405    0.536401   -1.011851
     35          1    20001034        5.002730   -0.648217   -1.961334
     36          1    20001034        4.867774    1.595204    0.954804
     37          1    20001034        3.219632    1.295313    1.420217
     38          1    20001034        3.890218    3.590717    0.506032
     39          1    20001034        3.953802    2.883186   -1.077120
     40          1    20001034        1.527836    2.395584   -0.978601
     41          1    20001034        1.887679    4.073221   -0.753215
     42          1    20001033        1.776877    3.018922    1.904237
     43          1    20001033       -0.518593    3.081498    2.157716
     44          1    20001034       -0.730986    3.551723   -0.858077
     45          1    20001034       -1.924288    3.921508    0.348579
     46          1    20001034       -2.547070    2.008590   -1.077234
     47          1    20001034       -1.138995    1.130618   -0.582635
     48          1    20001034       -3.273751    2.064717    1.383532
     49          1    20001034       -1.912315    1.040131    1.743709
     50          1    20001034       -4.772164    0.447417    2.457406
     51          1    20001034       -3.334220   -0.455878    2.872730
     52          1    20001034       -4.688122   -1.258916    2.067829
     53          1    20001029       -4.402831    1.134051   -0.783756
     54          1    20001034       -7.152217   -0.739957   -1.915219
     55          1    20001034       -5.668264   -0.258233   -2.728800
     56          1    20001034       -6.564462    0.925262   -1.782036
     57          1    20001029       -2.387532   -2.051359    1.838406
     58          1    20001035       -0.761557   -3.539710    1.162290
     59          1    20001035       -0.545275   -2.646873   -0.339775
     60          1    20001035       -1.905099   -3.745325   -0.168588
     61          1    20001029        4.810415   -0.581797    1.441023
     62          1    20001034        4.870962   -4.088394    1.152992
     63          1    20001034        4.944184   -2.766620    2.327696
     64          1    20001034        6.221223   -2.962293    1.135918
 ---------------------------------------------------------------------
 Rotational constants (GHZ):      0.2800848      0.0932773      0.0788490
 Standard basis: 6-31G(d) (6D, 7F)
 There are   492 symmetry adapted basis functions of A   symmetry.
 Integral buffers will be    131072 words long.
 Raffenetti 1 integral format.
 Two-electron integral symmetry is turned on.
   492 basis functions,   928 primitive gaussians,   492 cartesian basis functions
   108 alpha electrons      108 beta electrons
       nuclear repulsion energy      2919.9931222593 Hartrees.
 NAtoms=   64 NActive=   64 NUniq=   64 SFac= 7.50D-01 NAtFMM=   80 NAOKFM=F Big=T
 One-electron integrals computed using PRISM.
 NBasis=   492 RedAO= T  NBF=   492
 NBsUse=   492 1.00D-06 NBFU=   492
 Harris functional with IExCor=  205 diagonalized for initial guess.
 ExpMin= 1.61D-01 ExpMax= 5.48D+03 ExpMxC= 8.25D+02 IAcc=1 IRadAn=         1 AccDes= 0.00D+00
 HarFok:  IExCor=  205 AccDes= 0.00D+00 IRadAn=         1 IDoV= 1
 ScaDFX=  1.000000  1.000000  1.000000  1.000000
 FoFCou: FMM=F IPFlag=           0 FMFlag=      100000 FMFlg1=           1
         NFxFlg=           0 DoJE=T BraDBF=F KetDBF=T FulRan=T
         Omega=  0.000000  0.000000  1.000000  0.000000  0.000000 ICntrl=     500 IOpCl=  0
         NMat0=    1 NMatS0=    1 NMatT0=    0 NMatD0=    1 NMtDS0=    0 NMtDT0=    0
         I1Cent=           4 NGrid=           0.
 Petite list used in FoFCou.
 Initial guess orbital symmetries:
       Occupied  (A) (A) (A) (A) (A) (A) (A) (A) (A) (A) (A) (A)
                 (A) (A) (A) (A) (A) (A) (A) (A) (A) (A) (A) (A)
                 (A) (A) (A) (A) (A) (A) (A) (A) (A) (A) (A) (A)
                 (A) (A) (A) (A) (A) (A) (A) (A) (A) (A) (A) (A)
                 (A) (A) (A) (A) (A) (A) (A) (A) (A) (A) (A) (A)
                 (A) (A) (A) (A) (A) (A) (A) (A) (A) (A) (A) (A)
                 (A) (A) (A) (A) (A) (A) (A) (A) (A) (A) (A) (A)
                 (A) (A) (A) (A) (A) (A) (A) (A) (A) (A) (A) (A)
                 (A) (A) (A) (A) (A) (A) (A) (A) (A) (A) (A) (A)
       Virtual   (A) (A) (A) (A) (A) (A) (A) (A) (A) (A) (A) (A)
                 (A) (A) (A) (A) (A) (A) (A) (A) (A) (A) (A) (A)
                 (A) (A) (A) (A) (A) (A) (A) (A) (A) (A) (A) (A)
                 (A) (A) (A) (A) (A) (A) (A) (A) (A) (A) (A) (A)
                 (A) (A) (A) (A) (A) (A) (A) (A) (A) (A) (A) (A)
                 (A) (A) (A) (A) (A) (A) (A) (A) (A) (A) (A) (A)
                 (A) (A) (A) (A) (A) (A) (A) (A) (A) (A) (A) (A)
                 (A) (A) (A) (A) (A) (A) (A) (A) (A) (A) (A) (A)
                 (A) (A) (A) (A) (A) (A) (A) (A) (A) (A) (A) (A)
                 (A) (A) (A) (A) (A) (A) (A) (A) (A) (A) (A) (A)
                 (A) (A) (A) (A) (A) (A) (A) (A) (A) (A) (A) (A)
                 (A) (A) (A) (A) (A) (A) (A) (A) (A) (A) (A) (A)
                 (A) (A) (A) (A) (A) (A) (A) (A) (A) (A) (A) (A)
                 (A) (A) (A) (A) (A) (A) (A) (A) (A) (A) (A) (A)
                 (A) (A) (A) (A) (A) (A) (A) (A) (A) (A) (A) (A)
                 (A) (A) (A) (A) (A) (A) (A) (A) (A) (A) (A) (A)
                 (A) (A) (A) (A) (A) (A) (A) (A) (A) (A) (A) (A)
                 (A) (A) (A) (A) (A) (A) (A) (A) (A) (A) (A) (A)
                 (A) (A) (A) (A) (A) (A) (A) (A) (A) (A) (A) (A)
                 (A) (A) (A) (A) (A) (A) (A) (A) (A) (A) (A) (A)
                 (A) (A) (A) (A) (A) (A) (A) (A) (A) (A) (A) (A)
                 (A) (A) (A) (A) (A) (A) (A) (A) (A) (A) (A) (A)
                 (A) (A) (A) (A) (A) (A) (A) (A) (A) (A) (A) (A)
                 (A) (A) (A) (A) (A) (A) (A) (A) (A) (A) (A) (A)
                 (A) (A) (A) (A) (A) (A) (A) (A) (A) (A) (A) (A)
                 (A) (A) (A) (A) (A) (A) (A) (A) (A) (A) (A) (A)
                 (A) (A) (A) (A) (A) (A) (A) (A) (A) (A) (A) (A)
                 (A) (A) (A) (A) (A) (A) (A) (A) (A) (A) (A) (A)
                 (A) (A) (A) (A) (A) (A) (A) (A) (A) (A) (A) (A)
                 (A) (A) (A) (A) (A) (A) (A) (A) (A) (A) (A) (A)
                 (A) (A) (A) (A) (A) (A) (A) (A) (A) (A) (A) (A)
                 (A) (A) (A) (A) (A) (A) (A) (A) (A) (A) (A) (A)
 The electronic state of the initial guess is 1-A.
 Requested convergence on RMS density matrix=1.00D-08 within 128 cycles.
 Requested convergence on MAX density matrix=1.00D-06.
 Requested convergence on             energy=1.00D-06.
 No special actions if energy rises.
 Integral accuracy reduced to 1.0D-05 until final iterations.
 Initial convergence to 1.0D-05 achieved.  Increase integral accuracy.
 SCF Done:  E(RHF) =  -1295.55371058     A.U. after   14 cycles
             Convg  =    0.7855D-08             -V/T =  2.0009

 **********************************************************************

            Population analysis using the SCF density.

 **********************************************************************

 Orbital symmetries:
       Occupied  (A) (A) (A) (A) (A) (A) (A) (A) (A) (A) (A) (A)
                 (A) (A) (A) (A) (A) (A) (A) (A) (A) (A) (A) (A)
                 (A) (A) (A) (A) (A) (A) (A) (A) (A) (A) (A) (A)
                 (A) (A) (A) (A) (A) (A) (A) (A) (A) (A) (A) (A)
                 (A) (A) (A) (A) (A) (A) (A) (A) (A) (A) (A) (A)
                 (A) (A) (A) (A) (A) (A) (A) (A) (A) (A) (A) (A)
                 (A) (A) (A) (A) (A) (A) (A) (A) (A) (A) (A) (A)
                 (A) (A) (A) (A) (A) (A) (A) (A) (A) (A) (A) (A)
                 (A) (A) (A) (A) (A) (A) (A) (A) (A) (A) (A) (A)
       Virtual   (A) (A) (A) (A) (A) (A) (A) (A) (A) (A) (A) (A)
                 (A) (A) (A) (A) (A) (A) (A) (A) (A) (A) (A) (A)
                 (A) (A) (A) (A) (A) (A) (A) (A) (A) (A) (A) (A)
                 (A) (A) (A) (A) (A) (A) (A) (A) (A) (A) (A) (A)
                 (A) (A) (A) (A) (A) (A) (A) (A) (A) (A) (A) (A)
                 (A) (A) (A) (A) (A) (A) (A) (A) (A) (A) (A) (A)
                 (A) (A) (A) (A) (A) (A) (A) (A) (A) (A) (A) (A)
                 (A) (A) (A) (A) (A) (A) (A) (A) (A) (A) (A) (A)
                 (A) (A) (A) (A) (A) (A) (A) (A) (A) (A) (A) (A)
                 (A) (A) (A) (A) (A) (A) (A) (A) (A) (A) (A) (A)
                 (A) (A) (A) (A) (A) (A) (A) (A) (A) (A) (A) (A)
                 (A) (A) (A) (A) (A) (A) (A) (A) (A) (A) (A) (A)
                 (A) (A) (A) (A) (A) (A) (A) (A) (A) (A) (A) (A)
                 (A) (A) (A) (A) (A) (A) (A) (A) (A) (A) (A) (A)
                 (A) (A) (A) (A) (A) (A) (A) (A) (A) (A) (A) (A)
                 (A) (A) (A) (A) (A) (A) (A) (A) (A) (A) (A) (A)
                 (A) (A) (A) (A) (A) (A) (A) (A) (A) (A) (A) (A)
                 (A) (A) (A) (A) (A) (A) (A) (A) (A) (A) (A) (A)
                 (A) (A) (A) (A) (A) (A) (A) (A) (A) (A) (A) (A)
                 (A) (A) (A) (A) (A) (A) (A) (A) (A) (A) (A) (A)
                 (A) (A) (A) (A) (A) (A) (A) (A) (A) (A) (A) (A)
                 (A) (A) (A) (A) (A) (A) (A) (A) (A) (A) (A) (A)
                 (A) (A) (A) (A) (A) (A) (A) (A) (A) (A) (A) (A)
                 (A) (A) (A) (A) (A) (A) (A) (A) (A) (A) (A) (A)
                 (A) (A) (A) (A) (A) (A) (A) (A) (A) (A) (A) (A)
                 (A) (A) (A) (A) (A) (A) (A) (A) (A) (A) (A) (A)
                 (A) (A) (A) (A) (A) (A) (A) (A) (A) (A) (A) (A)
                 (A) (A) (A) (A) (A) (A) (A) (A) (A) (A) (A) (A)
                 (A) (A) (A) (A) (A) (A) (A) (A) (A) (A) (A) (A)
                 (A) (A) (A) (A) (A) (A) (A) (A) (A) (A) (A) (A)
                 (A) (A) (A) (A) (A) (A) (A) (A) (A) (A) (A) (A)
                 (A) (A) (A) (A) (A) (A) (A) (A) (A) (A) (A) (A)
 The electronic state is 1-A.
 Alpha  occ. eigenvalues --  -20.53426 -20.52392 -20.52176 -20.51176 -15.59369
 Alpha  occ. eigenvalues --  -15.58637 -15.57689 -15.56426 -11.35762 -11.34368
 Alpha  occ. eigenvalues --  -11.34324 -11.33150 -11.28870 -11.28699 -11.24241
 Alpha  occ. eigenvalues --  -11.23981 -11.23930 -11.23529 -11.22727 -11.22532
 Alpha  occ. eigenvalues --  -11.22454 -11.22313 -11.22188 -11.22173 -11.22068
 Alpha  occ. eigenvalues --  -11.21872 -11.21608 -11.20621  -1.40339  -1.39965
 Alpha  occ. eigenvalues --   -1.38549  -1.38029  -1.25125  -1.23864  -1.23602
 Alpha  occ. eigenvalues --   -1.21150  -1.10653  -1.09267  -1.07235  -1.04219
 Alpha  occ. eigenvalues --   -1.01280  -0.99291  -0.99103  -0.97197  -0.94792
 Alpha  occ. eigenvalues --   -0.93721  -0.92183  -0.86986  -0.86111  -0.82470
 Alpha  occ. eigenvalues --   -0.81596  -0.79798  -0.78620  -0.77486  -0.76363
 Alpha  occ. eigenvalues --   -0.72465  -0.71622  -0.71091  -0.68949  -0.68240
 Alpha  occ. eigenvalues --   -0.66869  -0.66079  -0.65162  -0.64502  -0.63797
 Alpha  occ. eigenvalues --   -0.63417  -0.62337  -0.61809  -0.61565  -0.61301
 Alpha  occ. eigenvalues --   -0.60358  -0.59668  -0.59472  -0.58888  -0.58197
 Alpha  occ. eigenvalues --   -0.57710  -0.57563  -0.57074  -0.56730  -0.56122
 Alpha  occ. eigenvalues --   -0.55647  -0.55210  -0.54779  -0.53897  -0.53467
 Alpha  occ. eigenvalues --   -0.52923  -0.52335  -0.51901  -0.51686  -0.51122
 Alpha  occ. eigenvalues --   -0.50543  -0.50002  -0.49216  -0.48919  -0.47624
 Alpha  occ. eigenvalues --   -0.47488  -0.47166  -0.46285  -0.44628  -0.42626
 Alpha  occ. eigenvalues --   -0.41984  -0.41520  -0.41220  -0.39602  -0.38872
 Alpha  occ. eigenvalues --   -0.38714  -0.37086  -0.34110
 Alpha virt. eigenvalues --    0.17395   0.18981   0.19046   0.20209   0.20659
 Alpha virt. eigenvalues --    0.21113   0.21812   0.23010   0.23951   0.24709
 Alpha virt. eigenvalues --    0.24822   0.25969   0.26436   0.27101   0.27158
 Alpha virt. eigenvalues --    0.28234   0.28561   0.29070   0.29454   0.29583
 Alpha virt. eigenvalues --    0.29731   0.31159   0.31299   0.31743   0.32297
 Alpha virt. eigenvalues --    0.32392   0.32719   0.33097   0.33532   0.34163
 Alpha virt. eigenvalues --    0.34412   0.34617   0.35122   0.35213   0.36216
 Alpha virt. eigenvalues --    0.36801   0.37398   0.37928   0.38605   0.38678
 Alpha virt. eigenvalues --    0.39261   0.40051   0.40715   0.41014   0.42235
 Alpha virt. eigenvalues --    0.42523   0.42916   0.43696   0.44017   0.44423
 Alpha virt. eigenvalues --    0.45782   0.46183   0.47085   0.47191   0.47455
 Alpha virt. eigenvalues --    0.48831   0.49620   0.52119   0.53111   0.53310
 Alpha virt. eigenvalues --    0.55484   0.57355   0.57635   0.58204   0.60090
 Alpha virt. eigenvalues --    0.61439   0.63680   0.64472   0.69016   0.69718
 Alpha virt. eigenvalues --    0.70450   0.71249   0.72177   0.72305   0.72882
 Alpha virt. eigenvalues --    0.73439   0.74670   0.75140   0.75831   0.77195
 Alpha virt. eigenvalues --    0.77713   0.78536   0.78913   0.79253   0.80883
 Alpha virt. eigenvalues --    0.81027   0.81594   0.82786   0.83462   0.84125
 Alpha virt. eigenvalues --    0.84761   0.85828   0.86178   0.86723   0.87226
 Alpha virt. eigenvalues --    0.88164   0.89560   0.90519   0.91181   0.91857
 Alpha virt. eigenvalues --    0.92383   0.93171   0.93639   0.94068   0.95422
 Alpha virt. eigenvalues --    0.96228   0.97016   0.97243   0.98083   0.98344
 Alpha virt. eigenvalues --    0.98602   0.99755   1.00063   1.01417   1.01949
 Alpha virt. eigenvalues --    1.02720   1.03065   1.03507   1.04089   1.04435
 Alpha virt. eigenvalues --    1.05175   1.05700   1.06408   1.07229   1.09301
 Alpha virt. eigenvalues --    1.09540   1.10613   1.11262   1.12424   1.12762
 Alpha virt. eigenvalues --    1.13268   1.13477   1.13780   1.14430   1.14785
 Alpha virt. eigenvalues --    1.15143   1.15393   1.16127   1.16296   1.17122
 Alpha virt. eigenvalues --    1.17452   1.18085   1.18189   1.18342   1.18458
 Alpha virt. eigenvalues --    1.18853   1.19080   1.19418   1.19936   1.20111
 Alpha virt. eigenvalues --    1.20721   1.20764   1.20920   1.21714   1.21906
 Alpha virt. eigenvalues --    1.22417   1.23122   1.23180   1.23937   1.24067
 Alpha virt. eigenvalues --    1.24440   1.25525   1.26722   1.26998   1.28268
 Alpha virt. eigenvalues --    1.28461   1.29231   1.29655   1.30736   1.31286
 Alpha virt. eigenvalues --    1.31883   1.32657   1.33177   1.33847   1.34787
 Alpha virt. eigenvalues --    1.36056   1.36590   1.38090   1.39518   1.39893
 Alpha virt. eigenvalues --    1.41152   1.42179   1.43063   1.43881   1.45643
 Alpha virt. eigenvalues --    1.46400   1.48142   1.50584   1.51004   1.51793
 Alpha virt. eigenvalues --    1.52258   1.53520   1.55743   1.56491   1.58814
 Alpha virt. eigenvalues --    1.60058   1.61080   1.61667   1.62161   1.62307
 Alpha virt. eigenvalues --    1.64115   1.64419   1.65774   1.66962   1.69928
 Alpha virt. eigenvalues --    1.70526   1.72226   1.72891   1.73583   1.74431
 Alpha virt. eigenvalues --    1.75851   1.77050   1.77801   1.80780   1.81618
 Alpha virt. eigenvalues --    1.82970   1.83797   1.85904   1.87977   1.88391
 Alpha virt. eigenvalues --    1.89666   1.91615   1.92839   1.93678   1.95424
 Alpha virt. eigenvalues --    1.96818   1.98104   1.99256   2.00552   2.03418
 Alpha virt. eigenvalues --    2.05786   2.06475   2.07522   2.07685   2.08055
 Alpha virt. eigenvalues --    2.10666   2.10930   2.12071   2.12383   2.12960
 Alpha virt. eigenvalues --    2.13655   2.14121   2.15720   2.16184   2.16703
 Alpha virt. eigenvalues --    2.17388   2.18223   2.18893   2.19556   2.20064
 Alpha virt. eigenvalues --    2.20519   2.21222   2.22434   2.22958   2.24174
 Alpha virt. eigenvalues --    2.24298   2.26408   2.27047   2.27056   2.27691
 Alpha virt. eigenvalues --    2.29062   2.29463   2.30377   2.31022   2.32201
 Alpha virt. eigenvalues --    2.32987   2.33192   2.34326   2.36668   2.36852
 Alpha virt. eigenvalues --    2.37543   2.38380   2.39150   2.40158   2.41034
 Alpha virt. eigenvalues --    2.41591   2.43022   2.43235   2.43448   2.46064
 Alpha virt. eigenvalues --    2.46415   2.48033   2.48894   2.49858   2.50612
 Alpha virt. eigenvalues --    2.51817   2.53843   2.54756   2.55605   2.56132
 Alpha virt. eigenvalues --    2.57144   2.57651   2.58539   2.59974   2.61057
 Alpha virt. eigenvalues --    2.62188   2.63186   2.64370   2.65391   2.65523
 Alpha virt. eigenvalues --    2.68510   2.69462   2.70719   2.70972   2.72471
 Alpha virt. eigenvalues --    2.72648   2.74160   2.74405   2.75524   2.76713
 Alpha virt. eigenvalues --    2.77896   2.78606   2.78918   2.79509   2.80270
 Alpha virt. eigenvalues --    2.83172   2.84215   2.86163   2.87017   2.87634
 Alpha virt. eigenvalues --    2.87947   2.89422   2.90526   2.92138   2.96802
 Alpha virt. eigenvalues --    2.98057   2.98415   2.99020   2.99952   3.01865
 Alpha virt. eigenvalues --    3.04551   3.05278   3.05851   3.07382   3.08339
 Alpha virt. eigenvalues --    3.11266   3.12433   3.13183   3.14660   3.15798
 Alpha virt. eigenvalues --    3.18718   3.20823   3.25110   3.30227   3.30579
 Alpha virt. eigenvalues --    3.34552   3.36436   3.39517   3.40408   3.43116
 Alpha virt. eigenvalues --    3.43236   3.44023   3.54031   3.55760   3.57656
 Alpha virt. eigenvalues --    3.61029   4.40607   4.43430   4.46275   4.47300
 Alpha virt. eigenvalues --    4.50698   4.56220   4.57640   4.59841   4.62132
 Alpha virt. eigenvalues --    4.65447   4.66408   4.68718   4.70961   4.72625
 Alpha virt. eigenvalues --    4.73672   4.78274   4.80505   4.83298   4.84966
 Alpha virt. eigenvalues --    4.87788   4.91161   4.92435   4.95488   5.02628
 Alpha virt. eigenvalues --    5.06411   5.12981   5.22947   5.25490
          Condensed to atoms (all electrons):
 Mulliken atomic charges:
              1
     1  C   -0.330709
     2  N   -0.790521
     3  C    0.826011
     4  O   -0.631096
     5  C    0.103985
     6  C   -0.472513
     7  C   -0.332737
     8  C   -0.331139
     9  C   -0.358699
    10  C   -0.165451
    11  C   -0.183245
    12  C   -0.353370
    13  C   -0.313121
    14  C   -0.331045
    15  C    0.094057
    16  C   -0.509271
    17  N   -0.787738
    18  C    0.766689
    19  C   -0.595854
    20  O   -0.613882
    21  C    0.824730
    22  O   -0.633706
    23  N   -0.831449
    24  C   -0.309055
    25  N   -0.842085
    26  C    0.744252
    27  C   -0.588473
    28  O   -0.591105
    29  H    0.203915
    30  H    0.223041
    31  H    0.214983
    32  H    0.385094
    33  H    0.197766
    34  H    0.142165
    35  H    0.212865
    36  H    0.159785
    37  H    0.181515
    38  H    0.162043
    39  H    0.185601
    40  H    0.217420
    41  H    0.176061
    42  H    0.164700
    43  H    0.168044
    44  H    0.183463
    45  H    0.160366
    46  H    0.152984
    47  H    0.199620
    48  H    0.175755
    49  H    0.181915
    50  H    0.186138
    51  H    0.146102
    52  H    0.227529
    53  H    0.391576
    54  H    0.211640
    55  H    0.210974
    56  H    0.177218
    57  H    0.400299
    58  H    0.164528
    59  H    0.202548
    60  H    0.193066
    61  H    0.380892
    62  H    0.217824
    63  H    0.175979
    64  H    0.201126
 Sum of Mulliken atomic charges =   0.00000
 Mulliken charges with hydrogens summed into heavy atoms:
              1
     1  C    0.311230
     2  N   -0.405428
     3  C    0.826011
     4  O   -0.631096
     5  C    0.103985
     6  C    0.080283
     7  C    0.008563
     8  C    0.016505
     9  C    0.034781
    10  C   -0.000751
    11  C   -0.015201
    12  C   -0.009542
    13  C    0.039482
    14  C    0.026625
    15  C    0.094057
    16  C    0.050499
    17  N   -0.396162
    18  C    0.766689
    19  C    0.003978
    20  O   -0.613882
    21  C    0.824730
    22  O   -0.633706
    23  N   -0.431151
    24  C    0.251087
    25  N   -0.461192
    26  C    0.744252
    27  C    0.006456
    28  O   -0.591105
 Sum of Mulliken charges with hydrogens summed into heavy atoms =   0.00000
 Electronic spatial extent (au):  <R**2>=          13927.8451
 Charge=              0.0000 electrons
 Dipole moment (field-independent basis, Debye):
    X=              2.7659    Y=              2.6268    Z=              7.0254  Tot=              7.9942
 Quadrupole moment (field-independent basis, Debye-Ang):
   XX=           -157.4148   YY=           -173.7968   ZZ=           -172.9285
   XY=            -14.0594   XZ=             19.6940   YZ=            -13.5746
 Traceless Quadrupole moment (field-independent basis, Debye-Ang):
   XX=             10.6319   YY=             -5.7501   ZZ=             -4.8818
   XY=            -14.0594   XZ=             19.6940   YZ=            -13.5746
 Octapole moment (field-independent basis, Debye-Ang**2):
  XXX=            164.0660  YYY=            -36.5398  ZZZ=             18.5472  XYY=             15.4952
  XXY=             77.0966  XXZ=             33.0884  XZZ=            -29.8111  YZZ=            -14.0341
  YYZ=             15.3699  XYZ=            -15.7710
 Hexadecapole moment (field-independent basis, Debye-Ang**3):
 XXXX=         -12621.8064 YYYY=          -4043.9433 ZZZZ=          -1313.8385 XXXY=           -596.6407
 XXXZ=            580.0868 YYYX=            -42.4206 YYYZ=           -116.0892 ZZZX=             60.9375
 ZZZY=            -17.6417 XXYY=          -2972.0164 XXZZ=          -2289.1768 YYZZ=           -865.7725
 XXYZ=           -159.7773 YYXZ=             56.5548 ZZXY=              7.6710
 N-N= 2.919993122259D+03 E-N=-8.872380222249D+03  KE= 1.294351678003D+03
 1\1\GINC-MOSURA\SP\RHF\6-31G(d)\C20H36N4O4\MARIE\05-Dec-2019\0\\#SP HF
 /6-31G* Geom=(ModRedundant)\\paramfit run\\0,1\C,0,0.,0.,0.\N,0,1.4481
 87,0.,0.\C,0,2.1232,0.47592,1.072365\O,0,1.590179,0.696732,2.124447\C,
 0,3.650505,0.594143,0.921539\C,0,4.198902,1.549248,1.986845\C,0,4.3077
 51,-0.809116,1.023981\C,0,4.133566,-1.622781,2.319066\C,0,2.832729,-2.
 433298,2.484965\C,0,2.579342,-3.423586,1.372579\C,0,1.47559,-4.117516,
 1.146859\C,0,0.195294,-4.091962,1.946823\C,0,-0.937813,-3.272615,1.303
 158\C,0,-1.357386,-3.817651,-0.068632\C,0,-2.605259,-3.19674,-0.748284
 \C,0,-2.769409,-3.868751,-2.121203\N,0,-3.772434,-3.483136,0.074644\C,
 0,-4.991917,-2.936129,-0.202306\C,0,-5.994708,-3.009466,0.926338\O,0,-
 5.255423,-2.433697,-1.259315\C,0,-2.420227,-1.663512,-0.809114\O,0,-2.
 695717,-0.981722,0.141252\N,0,-1.848433,-1.149344,-1.919369\C,0,-1.692
 154,0.283549,-2.062875\N,0,3.997412,1.070275,-0.425452\C,0,3.587019,2.
 267163,-0.934086\C,0,4.328148,2.727659,-2.172145\O,0,2.697134,2.905425
 ,-0.447397\H,0,-0.403259,1.006147,0.\H,0,-0.36496,-0.516002,0.875939\H
 ,0,-0.345658,-0.522086,-0.883346\H,0,1.904244,0.070913,-0.879357\H,0,3
 .932135,1.22176,2.980082\H,0,5.28092,1.595925,1.9075\H,0,3.792711,2.54
 0594,1.848395\H,0,5.374584,-0.64325,0.891407\H,0,3.984642,-1.403324,0.
 174983\H,0,4.961565,-2.324757,2.354635\H,0,4.250121,-0.975721,3.182259
 \H,0,1.985724,-1.764045,2.562723\H,0,2.895638,-2.94811,3.437249\H,0,3.
 40135,-3.566918,0.690031\H,0,1.474662,-4.77888,0.294593\H,0,0.379259,-
 3.69583,2.938137\H,0,-0.144763,-5.117106,2.08837\H,0,-1.777841,-3.2721
 52,1.992163\H,0,-0.625949,-2.240393,1.213216\H,0,-1.547198,-4.885978,0
 .010003\H,0,-0.528263,-3.699609,-0.756361\H,0,-2.9949,-4.91786,-1.9692
 01\H,0,-1.851899,-3.813911,-2.697873\H,0,-3.577444,-3.42901,-2.6864\H,
 0,-3.587225,-3.616892,1.042383\H,0,-6.990339,-2.910824,0.521307\H,0,-5
 .811662,-2.182589,1.605965\H,0,-5.914382,-3.936107,1.48425\H,0,-1.8608
 05,-1.69055,-2.751386\H,0,-1.110219,0.480116,-2.953737\H,0,-1.169195,0
 .681162,-1.205528\H,0,-2.650121,0.787013,-2.143972\H,0,4.82812,0.68478
 5,-0.816437\H,0,3.710173,3.434604,-2.706288\H,0,4.588171,1.902533,-2.8
 25678\H,0,5.244771,3.226201,-1.873716\\Version=EM64L-G09RevA.02\State=
 1-A\HF=-1295.5537106\RMSD=7.855e-09\Dipole=2.2431393,-1.6647911,-1.445
 2911\Quadrupole=6.6016464,-8.866742,2.2650956,10.019159,-14.4329209,-1
 0.0057147\PG=C01 [X(C20H36N4O4)]\\@


 IT CANNOT BE MY BEAUTY, FOR I HAVE NONE; AND IT CANNOT BE MY WIT,
 FOR HE HAS NOT ENOUGH TO KNOW THAT I HAVE ANY.
 -- CATHARINE SEDLEY, PUZZLED ABOUT WHY SHE WAS MISTRESS TO JAMES II
 Job cpu time:  0 days  0 hours  7 minutes 25.1 seconds.
 File lengths (MBytes):  RWF=    132 Int=      0 D2E=      0 Chk=     10 Scr=      1
 Normal termination of Gaussian 09 at Thu Dec  5 17:11:36 2019.
