 Entering Gaussian System, Link 0=g09
 Input=CHI5_-80.gau
 Output=CHI5_-80.log
 Initial command:
 /home/marie/Utilities//g09/l1.exe /tmp/g09/Gau-9691.inp -scrdir=/tmp/g09/
 Entering Link 1 = /home/marie/Utilities//g09/l1.exe PID=      9693.
  
 Copyright (c) 1988,1990,1992,1993,1995,1998,2003,2009, Gaussian, Inc.
                  All Rights Reserved.
  
 This is part of the Gaussian(R) 09 program.  It is based on
 the Gaussian(R) 03 system (copyright 2003, Gaussian, Inc.),
 the Gaussian(R) 98 system (copyright 1998, Gaussian, Inc.),
 the Gaussian(R) 94 system (copyright 1995, Gaussian, Inc.),
 the Gaussian 92(TM) system (copyright 1992, Gaussian, Inc.),
 the Gaussian 90(TM) system (copyright 1990, Gaussian, Inc.),
 the Gaussian 88(TM) system (copyright 1988, Gaussian, Inc.),
 the Gaussian 86(TM) system (copyright 1986, Carnegie Mellon
 University), and the Gaussian 82(TM) system (copyright 1983,
 Carnegie Mellon University). Gaussian is a federally registered
 trademark of Gaussian, Inc.
  
 This software contains proprietary and confidential information,
 including trade secrets, belonging to Gaussian, Inc.
  
 This software is provided under written license and may be
 used, copied, transmitted, or stored only in accord with that
 written license.
  
 The following legend is applicable only to US Government
 contracts under FAR:
  
                    RESTRICTED RIGHTS LEGEND
  
 Use, reproduction and disclosure by the US Government is
 subject to restrictions as set forth in subparagraphs (a)
 and (c) of the Commercial Computer Software - Restricted
 Rights clause in FAR 52.227-19.
  
 Gaussian, Inc.
 340 Quinnipiac St., Bldg. 40, Wallingford CT 06492
  
  
 ---------------------------------------------------------------
 Warning -- This program may not be used in any manner that
 competes with the business of Gaussian, Inc. or will provide
 assistance to any competitor of Gaussian, Inc.  The licensee
 of this program is prohibited from giving any competitor of
 Gaussian, Inc. access to this program.  By using this program,
 the user acknowledges that Gaussian, Inc. is engaged in the
 business of creating and licensing software in the field of
 computational chemistry and represents and warrants to the
 licensee that it is not a competitor of Gaussian, Inc. and that
 it will not use this program in any manner prohibited above.
 ---------------------------------------------------------------
  

 Cite this work as:
 Gaussian 09, Revision A.02,
 M. J. Frisch, G. W. Trucks, H. B. Schlegel, G. E. Scuseria, 
 M. A. Robb, J. R. Cheeseman, G. Scalmani, V. Barone, B. Mennucci, 
 G. A. Petersson, H. Nakatsuji, M. Caricato, X. Li, H. P. Hratchian, 
 A. F. Izmaylov, J. Bloino, G. Zheng, J. L. Sonnenberg, M. Hada, 
 M. Ehara, K. Toyota, R. Fukuda, J. Hasegawa, M. Ishida, T. Nakajima, 
 Y. Honda, O. Kitao, H. Nakai, T. Vreven, J. A. Montgomery, Jr., 
 J. E. Peralta, F. Ogliaro, M. Bearpark, J. J. Heyd, E. Brothers, 
 K. N. Kudin, V. N. Staroverov, R. Kobayashi, J. Normand, 
 K. Raghavachari, A. Rendell, J. C. Burant, S. S. Iyengar, J. Tomasi, 
 M. Cossi, N. Rega, J. M. Millam, M. Klene, J. E. Knox, J. B. Cross, 
 V. Bakken, C. Adamo, J. Jaramillo, R. Gomperts, R. E. Stratmann, 
 O. Yazyev, A. J. Austin, R. Cammi, C. Pomelli, J. W. Ochterski, 
 R. L. Martin, K. Morokuma, V. G. Zakrzewski, G. A. Voth, 
 P. Salvador, J. J. Dannenberg, S. Dapprich, A. D. Daniels, 
 O. Farkas, J. B. Foresman, J. V. Ortiz, J. Cioslowski, 
 and D. J. Fox, Gaussian, Inc., Wallingford CT, 2009.
 
 ******************************************
 Gaussian 09:  EM64L-G09RevA.02 11-Jun-2009
                 5-Dec-2019 
 ******************************************
 %chk=CHI5_-80
 %NoSave
 ---------------------------------
 #SP HF/6-31G* Geom=(ModRedundant)
 ---------------------------------
 1/18=120,38=1/1;
 2/12=2,17=6,18=5,40=1/2;
 3/5=1,6=6,7=1,11=9,16=1,25=1,30=1/1,2,3;
 4//1;
 5/5=2,38=5/2;
 6/7=2,8=2,9=2,10=2,28=1/1;
 99/5=1,9=1/99;
 ------------
 paramfit run
 ------------
 Symbolic Z-matrix:
 Charge =  0 Multiplicity = 1
 C-CT--0.3208          0.        0.        0. 
 N-N--0.5622           1.44819   0.        0. 
 C-C-0.8053            2.1232    0.47592   1.07237 
 O-O--0.6151           1.59018   0.69673   2.12445 
 C-CX-0.0839           3.65051   0.59414   0.92154 
 C-CU--0.3230          4.1989    1.54925   1.98685 
 C-CU--0.0657          4.30775  -0.80912   1.02398 
 C-CU--0.0109          4.13357  -1.62278   2.31907 
 C-CU-0.0816           2.83273  -2.4333    2.48497 
 C-CM--0.2354          2.57934  -3.42359   1.37258 
 C-CM--0.2653          2.83409  -4.72199   1.37554 
 C-CU-0.1214           4.16353  -5.39732   1.13832 
 C-CU--0.0354          4.85864  -5.89526   2.41834 
 C-CU--0.0984          4.02946  -6.94267   3.17352 
 C-CU-0.1300           4.68642  -7.65813   4.38231 
 C-CU--0.3561          3.63564  -8.60028   4.99196 
 N-N--0.7186           5.81717  -8.43957   3.90035 
 C-C-0.8537            6.67298  -9.06216   4.76234 
 C-CT--0.3868          7.98433  -9.5017    4.15244 
 O-O--0.6323           6.41105  -9.25015   5.91784 
 C-C-0.7903            5.22033  -6.58501   5.35805 
 O-O--0.6136           6.29465  -6.07923   5.17378 
 N-N--0.5650           4.39516  -6.1768    6.3462 
 C-CT--0.3231          4.85093  -5.21144   7.32526 
 N-N--0.7191           3.99741   1.07028  -0.42545 
 C-C-0.8539            3.58702   2.26716  -0.93409 
 C-CT--0.3903          4.32815   2.72766  -2.17214 
 O-O--0.6290           2.69713   2.90543  -0.4474 
 H-H1-0.1459          -0.40326   1.00615   0. 
 H-H1-0.1459          -0.36496  -0.516     0.87594 
 H-H1-0.1459          -0.34566  -0.52209  -0.88335 
 H-H-0.3572            1.90424   0.07091  -0.87936 
 H-HC-0.0997           3.93214   1.22176   2.98008 
 H-HC-0.0997           5.28092   1.59593   1.9075 
 H-HC-0.0997           3.79271   2.54059   1.8484 
 H-HC-0.0347           5.37458  -0.64325   0.89141 
 H-HC-0.0347           3.98464  -1.40332   0.17498 
 H-HC-0.0243           4.96157  -2.32476   2.35464 
 H-HC-0.0243           4.25012  -0.97572   3.18226 
 H-HC-0.0171           1.98572  -1.76405   2.56272 
 H-HC-0.0171           2.89564  -2.94811   3.43725 
 H-HA-0.1313           2.1355   -3.00918   0.48186 
 H-HA-0.1359           2.00713  -5.38621   1.57227 
 H-HC-0.0092           4.84018  -4.7253    0.62452 
 H-HC-0.0092           4.00793  -6.24173   0.46798 
 H-HC-0.0318           5.8256   -6.30026   2.13313 
 H-HC-0.0318           5.06758  -5.05166   3.06293 
 H-HC-0.0435           3.719    -7.72381   2.48289 
 H-HC-0.0435           3.12364  -6.47122   3.53625 
 H-HC-0.1066           3.40231  -9.37366   4.26945 
 H-HC-0.1066           2.71375  -8.07164   5.21112 
 H-HC-0.1066           4.00024  -9.07684   5.88956 
 H-H-0.3529            6.23979  -8.10436   3.06504 
 H-HC-0.1047           8.41516  -10.27984   4.76394 
 H-HC-0.1047           8.66176  -8.65314   4.14016 
 H-HC-0.1047           7.86243  -9.8579    3.13526 
 H-H-0.3615            3.64222  -6.76834   6.60788 
 H-H1-0.1469           4.01264  -4.92961   7.94877 
 H-H1-0.1469           5.22768  -4.33255   6.82301 
 H-H1-0.1469           5.64126  -5.61432   7.95042 
 H-H-0.3570            4.82812   0.68479  -0.81644 
 H-HC-0.1060           3.71017   3.4346   -2.70629 
 H-HC-0.1060           4.58817   1.90253  -2.82568 
 H-HC-0.1060           5.24477   3.2262   -1.87372 
 
 The following ModRedundant input section has been read:
 D    *   10   11    * F                                                       
 Stoichiometry    C20H36N4O4
 Framework group  C1[X(C20H36N4O4)]
 Deg. of freedom   186
 Full point group                 C1      NOp   1
 Largest Abelian subgroup         C1      NOp   1
 Largest concise Abelian subgroup C1      NOp   1
                         Standard orientation:                         
 ---------------------------------------------------------------------
 Center     Atomic      Atomic             Coordinates (Angstroms)
 Number     Number       Type             X           Y           Z
 ---------------------------------------------------------------------
      1          6    20001001        5.070257   -1.602903    2.442696
      2          7    20001014        4.702125   -0.610747    1.454085
      3          6    20001002        4.449369   -0.989397    0.179390
      4          8    20001024        4.295139   -2.137238   -0.134329
      5          6    90000001        4.230607    0.143267   -0.839728
      6          6    90000002        4.422315   -0.399934   -2.259595
      7          6    90000002        2.819040    0.763533   -0.654388
      8          6    90000002        1.580027   -0.131676   -0.836274
      9          6    90000002        1.143374   -1.000226    0.360217
     10          6    20001004        0.868039   -0.215517    1.621447
     11          6    20001004       -0.306478    0.181282    2.083851
     12          6    90000002       -1.113113    1.376645    1.636414
     13          6    90000002       -2.296726    1.033096    0.714134
     14          6    90000002       -3.323368    0.111605    1.386275
     15          6    90000002       -4.650596   -0.170088    0.635435
     16          6    90000002       -5.464894   -1.158598    1.485857
     17          7    20001014       -5.386054    1.080684    0.508155
     18          6    20001002       -6.526912    1.164593   -0.236466
     19          6    20001001       -6.958253    2.570550   -0.585801
     20          8    20001024       -7.146054    0.199929   -0.590343
     21          6    20001002       -4.313740   -0.680227   -0.784076
     22          8    20001024       -4.071311    0.098794   -1.666281
     23          7    20001014       -4.204674   -2.015360   -0.955846
     24          6    20001001       -3.941457   -2.562755   -2.270866
     25          7    20001014        5.161165    1.251865   -0.581843
     26          6    20001002        6.518443    1.123823   -0.614586
     27          6    20001001        7.285925    2.428119   -0.677061
     28          8    20001024        7.068297    0.059463   -0.583947
     29          1    20001035        6.031690   -2.053036    2.223659
     30          1    20001035        4.324371   -2.383637    2.471529
     31          1    20001035        5.113960   -1.124394    3.412991
     32          1    20001029        5.046445    0.311727    1.583586
     33          1    20001034        3.759080   -1.228977   -2.453861
     34          1    20001034        4.223178    0.389442   -2.978251
     35          1    20001034        5.434791   -0.751543   -2.394467
     36          1    20001034        2.749707    1.559578   -1.392443
     37          1    20001034        2.779829    1.245646    0.317368
     38          1    20001034        0.754120    0.531717   -1.075868
     39          1    20001034        1.710411   -0.774477   -1.700670
     40          1    20001034        1.894664   -1.751182    0.567561
     41          1    20001034        0.255036   -1.542058    0.055082
     42          1    20001033        1.739513    0.039124    2.202656
     43          1    20001033       -0.752719   -0.409718    2.868292
     44          1    20001034       -0.477878    2.087691    1.122258
     45          1    20001034       -1.489709    1.890321    2.520103
     46          1    20001034       -2.758621    1.967373    0.407290
     47          1    20001034       -1.922676    0.574316   -0.191646
     48          1    20001034       -3.597356    0.522619    2.355570
     49          1    20001034       -2.855516   -0.847126    1.576798
     50          1    20001034       -5.737379   -0.673527    2.415931
     51          1    20001034       -4.878879   -2.036626    1.736920
     52          1    20001034       -6.372411   -1.461658    0.985550
     53          1    20001029       -4.827632    1.903408    0.506802
     54          1    20001034       -8.010014    2.567439   -0.828391
     55          1    20001034       -6.400477    2.896721   -1.458511
     56          1    20001034       -6.768987    3.268398    0.222633
     57          1    20001029       -4.637203   -2.614160   -0.292772
     58          1    20001035       -3.771199   -3.627000   -2.174343
     59          1    20001035       -3.058648   -2.101096   -2.688175
     60          1    20001035       -4.770463   -2.394083   -2.950610
     61          1    20001029        4.798637    2.164279   -0.748042
     62          1    20001034        8.289314    2.260574   -0.313589
     63          1    20001034        6.812502    3.211317   -0.095665
     64          1    20001034        7.342859    2.758768   -1.709162
 ---------------------------------------------------------------------
 Rotational constants (GHZ):      0.3793926      0.0529408      0.0526846
 Standard basis: 6-31G(d) (6D, 7F)
 There are   492 symmetry adapted basis functions of A   symmetry.
 Integral buffers will be    131072 words long.
 Raffenetti 1 integral format.
 Two-electron integral symmetry is turned on.
   492 basis functions,   928 primitive gaussians,   492 cartesian basis functions
   108 alpha electrons      108 beta electrons
       nuclear repulsion energy      2717.6570880799 Hartrees.
 NAtoms=   64 NActive=   64 NUniq=   64 SFac= 7.50D-01 NAtFMM=   80 NAOKFM=F Big=T
 One-electron integrals computed using PRISM.
 NBasis=   492 RedAO= T  NBF=   492
 NBsUse=   492 1.00D-06 NBFU=   492
 Harris functional with IExCor=  205 diagonalized for initial guess.
 ExpMin= 1.61D-01 ExpMax= 5.48D+03 ExpMxC= 8.25D+02 IAcc=1 IRadAn=         1 AccDes= 0.00D+00
 HarFok:  IExCor=  205 AccDes= 0.00D+00 IRadAn=         1 IDoV= 1
 ScaDFX=  1.000000  1.000000  1.000000  1.000000
 FoFCou: FMM=F IPFlag=           0 FMFlag=      100000 FMFlg1=           1
         NFxFlg=           0 DoJE=T BraDBF=F KetDBF=T FulRan=T
         Omega=  0.000000  0.000000  1.000000  0.000000  0.000000 ICntrl=     500 IOpCl=  0
         NMat0=    1 NMatS0=    1 NMatT0=    0 NMatD0=    1 NMtDS0=    0 NMtDT0=    0
         I1Cent=           4 NGrid=           0.
 Petite list used in FoFCou.
 Initial guess orbital symmetries:
       Occupied  (A) (A) (A) (A) (A) (A) (A) (A) (A) (A) (A) (A)
                 (A) (A) (A) (A) (A) (A) (A) (A) (A) (A) (A) (A)
                 (A) (A) (A) (A) (A) (A) (A) (A) (A) (A) (A) (A)
                 (A) (A) (A) (A) (A) (A) (A) (A) (A) (A) (A) (A)
                 (A) (A) (A) (A) (A) (A) (A) (A) (A) (A) (A) (A)
                 (A) (A) (A) (A) (A) (A) (A) (A) (A) (A) (A) (A)
                 (A) (A) (A) (A) (A) (A) (A) (A) (A) (A) (A) (A)
                 (A) (A) (A) (A) (A) (A) (A) (A) (A) (A) (A) (A)
                 (A) (A) (A) (A) (A) (A) (A) (A) (A) (A) (A) (A)
       Virtual   (A) (A) (A) (A) (A) (A) (A) (A) (A) (A) (A) (A)
                 (A) (A) (A) (A) (A) (A) (A) (A) (A) (A) (A) (A)
                 (A) (A) (A) (A) (A) (A) (A) (A) (A) (A) (A) (A)
                 (A) (A) (A) (A) (A) (A) (A) (A) (A) (A) (A) (A)
                 (A) (A) (A) (A) (A) (A) (A) (A) (A) (A) (A) (A)
                 (A) (A) (A) (A) (A) (A) (A) (A) (A) (A) (A) (A)
                 (A) (A) (A) (A) (A) (A) (A) (A) (A) (A) (A) (A)
                 (A) (A) (A) (A) (A) (A) (A) (A) (A) (A) (A) (A)
                 (A) (A) (A) (A) (A) (A) (A) (A) (A) (A) (A) (A)
                 (A) (A) (A) (A) (A) (A) (A) (A) (A) (A) (A) (A)
                 (A) (A) (A) (A) (A) (A) (A) (A) (A) (A) (A) (A)
                 (A) (A) (A) (A) (A) (A) (A) (A) (A) (A) (A) (A)
                 (A) (A) (A) (A) (A) (A) (A) (A) (A) (A) (A) (A)
                 (A) (A) (A) (A) (A) (A) (A) (A) (A) (A) (A) (A)
                 (A) (A) (A) (A) (A) (A) (A) (A) (A) (A) (A) (A)
                 (A) (A) (A) (A) (A) (A) (A) (A) (A) (A) (A) (A)
                 (A) (A) (A) (A) (A) (A) (A) (A) (A) (A) (A) (A)
                 (A) (A) (A) (A) (A) (A) (A) (A) (A) (A) (A) (A)
                 (A) (A) (A) (A) (A) (A) (A) (A) (A) (A) (A) (A)
                 (A) (A) (A) (A) (A) (A) (A) (A) (A) (A) (A) (A)
                 (A) (A) (A) (A) (A) (A) (A) (A) (A) (A) (A) (A)
                 (A) (A) (A) (A) (A) (A) (A) (A) (A) (A) (A) (A)
                 (A) (A) (A) (A) (A) (A) (A) (A) (A) (A) (A) (A)
                 (A) (A) (A) (A) (A) (A) (A) (A) (A) (A) (A) (A)
                 (A) (A) (A) (A) (A) (A) (A) (A) (A) (A) (A) (A)
                 (A) (A) (A) (A) (A) (A) (A) (A) (A) (A) (A) (A)
                 (A) (A) (A) (A) (A) (A) (A) (A) (A) (A) (A) (A)
                 (A) (A) (A) (A) (A) (A) (A) (A) (A) (A) (A) (A)
                 (A) (A) (A) (A) (A) (A) (A) (A) (A) (A) (A) (A)
                 (A) (A) (A) (A) (A) (A) (A) (A) (A) (A) (A) (A)
                 (A) (A) (A) (A) (A) (A) (A) (A) (A) (A) (A) (A)
                 (A) (A) (A) (A) (A) (A) (A) (A) (A) (A) (A) (A)
 The electronic state of the initial guess is 1-A.
 Requested convergence on RMS density matrix=1.00D-08 within 128 cycles.
 Requested convergence on MAX density matrix=1.00D-06.
 Requested convergence on             energy=1.00D-06.
 No special actions if energy rises.
 Integral accuracy reduced to 1.0D-05 until final iterations.
 Initial convergence to 1.0D-05 achieved.  Increase integral accuracy.
 SCF Done:  E(RHF) =  -1295.47720265     A.U. after   16 cycles
             Convg  =    0.5071D-08             -V/T =  2.0010

 **********************************************************************

            Population analysis using the SCF density.

 **********************************************************************

 Orbital symmetries:
       Occupied  (A) (A) (A) (A) (A) (A) (A) (A) (A) (A) (A) (A)
                 (A) (A) (A) (A) (A) (A) (A) (A) (A) (A) (A) (A)
                 (A) (A) (A) (A) (A) (A) (A) (A) (A) (A) (A) (A)
                 (A) (A) (A) (A) (A) (A) (A) (A) (A) (A) (A) (A)
                 (A) (A) (A) (A) (A) (A) (A) (A) (A) (A) (A) (A)
                 (A) (A) (A) (A) (A) (A) (A) (A) (A) (A) (A) (A)
                 (A) (A) (A) (A) (A) (A) (A) (A) (A) (A) (A) (A)
                 (A) (A) (A) (A) (A) (A) (A) (A) (A) (A) (A) (A)
                 (A) (A) (A) (A) (A) (A) (A) (A) (A) (A) (A) (A)
       Virtual   (A) (A) (A) (A) (A) (A) (A) (A) (A) (A) (A) (A)
                 (A) (A) (A) (A) (A) (A) (A) (A) (A) (A) (A) (A)
                 (A) (A) (A) (A) (A) (A) (A) (A) (A) (A) (A) (A)
                 (A) (A) (A) (A) (A) (A) (A) (A) (A) (A) (A) (A)
                 (A) (A) (A) (A) (A) (A) (A) (A) (A) (A) (A) (A)
                 (A) (A) (A) (A) (A) (A) (A) (A) (A) (A) (A) (A)
                 (A) (A) (A) (A) (A) (A) (A) (A) (A) (A) (A) (A)
                 (A) (A) (A) (A) (A) (A) (A) (A) (A) (A) (A) (A)
                 (A) (A) (A) (A) (A) (A) (A) (A) (A) (A) (A) (A)
                 (A) (A) (A) (A) (A) (A) (A) (A) (A) (A) (A) (A)
                 (A) (A) (A) (A) (A) (A) (A) (A) (A) (A) (A) (A)
                 (A) (A) (A) (A) (A) (A) (A) (A) (A) (A) (A) (A)
                 (A) (A) (A) (A) (A) (A) (A) (A) (A) (A) (A) (A)
                 (A) (A) (A) (A) (A) (A) (A) (A) (A) (A) (A) (A)
                 (A) (A) (A) (A) (A) (A) (A) (A) (A) (A) (A) (A)
                 (A) (A) (A) (A) (A) (A) (A) (A) (A) (A) (A) (A)
                 (A) (A) (A) (A) (A) (A) (A) (A) (A) (A) (A) (A)
                 (A) (A) (A) (A) (A) (A) (A) (A) (A) (A) (A) (A)
                 (A) (A) (A) (A) (A) (A) (A) (A) (A) (A) (A) (A)
                 (A) (A) (A) (A) (A) (A) (A) (A) (A) (A) (A) (A)
                 (A) (A) (A) (A) (A) (A) (A) (A) (A) (A) (A) (A)
                 (A) (A) (A) (A) (A) (A) (A) (A) (A) (A) (A) (A)
                 (A) (A) (A) (A) (A) (A) (A) (A) (A) (A) (A) (A)
                 (A) (A) (A) (A) (A) (A) (A) (A) (A) (A) (A) (A)
                 (A) (A) (A) (A) (A) (A) (A) (A) (A) (A) (A) (A)
                 (A) (A) (A) (A) (A) (A) (A) (A) (A) (A) (A) (A)
                 (A) (A) (A) (A) (A) (A) (A) (A) (A) (A) (A) (A)
                 (A) (A) (A) (A) (A) (A) (A) (A) (A) (A) (A) (A)
                 (A) (A) (A) (A) (A) (A) (A) (A) (A) (A) (A) (A)
                 (A) (A) (A) (A) (A) (A) (A) (A) (A) (A) (A) (A)
                 (A) (A) (A) (A) (A) (A) (A) (A) (A) (A) (A) (A)
                 (A) (A) (A) (A) (A) (A) (A) (A) (A) (A) (A) (A)
 The electronic state is 1-A.
 Alpha  occ. eigenvalues --  -20.53608 -20.52135 -20.51853 -20.51750 -15.59564
 Alpha  occ. eigenvalues --  -15.58053 -15.57595 -15.57502 -11.35926 -11.34345
 Alpha  occ. eigenvalues --  -11.33854 -11.33824 -11.28980 -11.28657 -11.25153
 Alpha  occ. eigenvalues --  -11.24841 -11.24317 -11.23973 -11.23520 -11.22978
 Alpha  occ. eigenvalues --  -11.22627 -11.22251 -11.22203 -11.22162 -11.21982
 Alpha  occ. eigenvalues --  -11.21926 -11.21852 -11.20770  -1.40547  -1.39486
 Alpha  occ. eigenvalues --   -1.38709  -1.38217  -1.25392  -1.23631  -1.22764
 Alpha  occ. eigenvalues --   -1.22046  -1.10706  -1.09254  -1.07194  -1.04300
 Alpha  occ. eigenvalues --   -1.01246  -0.99347  -0.98808  -0.95473  -0.95361
 Alpha  occ. eigenvalues --   -0.94738  -0.92062  -0.87295  -0.85586  -0.82816
 Alpha  occ. eigenvalues --   -0.81207  -0.79603  -0.78650  -0.77151  -0.76995
 Alpha  occ. eigenvalues --   -0.72710  -0.71513  -0.71160  -0.68960  -0.67959
 Alpha  occ. eigenvalues --   -0.66062  -0.65597  -0.64536  -0.64048  -0.63628
 Alpha  occ. eigenvalues --   -0.62572  -0.62442  -0.61795  -0.61515  -0.61131
 Alpha  occ. eigenvalues --   -0.60874  -0.60035  -0.59348  -0.58748  -0.58569
 Alpha  occ. eigenvalues --   -0.58226  -0.57385  -0.57157  -0.56606  -0.56167
 Alpha  occ. eigenvalues --   -0.55295  -0.54899  -0.54611  -0.54470  -0.54334
 Alpha  occ. eigenvalues --   -0.53747  -0.52963  -0.52709  -0.52194  -0.51932
 Alpha  occ. eigenvalues --   -0.50990  -0.50755  -0.49842  -0.49296  -0.48775
 Alpha  occ. eigenvalues --   -0.47803  -0.47359  -0.46871  -0.46054  -0.42833
 Alpha  occ. eigenvalues --   -0.41897  -0.41623  -0.41158  -0.39255  -0.38963
 Alpha  occ. eigenvalues --   -0.38414  -0.38296  -0.24638
 Alpha virt. eigenvalues --    0.07953   0.18835   0.19547   0.20053   0.20113
 Alpha virt. eigenvalues --    0.21395   0.21519   0.22966   0.23493   0.23825
 Alpha virt. eigenvalues --    0.25498   0.25700   0.25987   0.26949   0.27464
 Alpha virt. eigenvalues --    0.28020   0.28206   0.28546   0.29082   0.29324
 Alpha virt. eigenvalues --    0.29561   0.30322   0.31031   0.31399   0.31851
 Alpha virt. eigenvalues --    0.32222   0.32359   0.32667   0.32839   0.33333
 Alpha virt. eigenvalues --    0.33543   0.33934   0.34299   0.34555   0.35124
 Alpha virt. eigenvalues --    0.35574   0.35947   0.36743   0.36836   0.37675
 Alpha virt. eigenvalues --    0.38478   0.38658   0.39050   0.39574   0.40446
 Alpha virt. eigenvalues --    0.41005   0.42013   0.42160   0.43121   0.44224
 Alpha virt. eigenvalues --    0.44470   0.44804   0.45049   0.46126   0.47333
 Alpha virt. eigenvalues --    0.48180   0.48840   0.49517   0.50438   0.52233
 Alpha virt. eigenvalues --    0.53137   0.55239   0.57732   0.57825   0.59092
 Alpha virt. eigenvalues --    0.60882   0.63355   0.64256   0.69126   0.69933
 Alpha virt. eigenvalues --    0.70681   0.71366   0.72666   0.72853   0.73410
 Alpha virt. eigenvalues --    0.74183   0.74909   0.75318   0.76299   0.76795
 Alpha virt. eigenvalues --    0.77102   0.77357   0.77702   0.78311   0.79418
 Alpha virt. eigenvalues --    0.80269   0.80372   0.81263   0.81803   0.82995
 Alpha virt. eigenvalues --    0.83101   0.84332   0.84472   0.85675   0.86111
 Alpha virt. eigenvalues --    0.86889   0.87280   0.88329   0.89570   0.91057
 Alpha virt. eigenvalues --    0.91683   0.92247   0.92458   0.93025   0.93488
 Alpha virt. eigenvalues --    0.94243   0.95903   0.96837   0.97011   0.97587
 Alpha virt. eigenvalues --    0.97897   0.98650   0.99377   0.99970   1.00141
 Alpha virt. eigenvalues --    1.01192   1.01595   1.01973   1.02853   1.03018
 Alpha virt. eigenvalues --    1.03727   1.04046   1.05291   1.05347   1.06505
 Alpha virt. eigenvalues --    1.07440   1.07841   1.08654   1.09343   1.10304
 Alpha virt. eigenvalues --    1.10825   1.11559   1.12309   1.13202   1.13256
 Alpha virt. eigenvalues --    1.14174   1.14453   1.14681   1.15108   1.15322
 Alpha virt. eigenvalues --    1.15797   1.16488   1.16558   1.17222   1.17674
 Alpha virt. eigenvalues --    1.18177   1.18272   1.18403   1.19010   1.19363
 Alpha virt. eigenvalues --    1.19864   1.20113   1.20458   1.20911   1.21530
 Alpha virt. eigenvalues --    1.21763   1.21977   1.22219   1.22527   1.22901
 Alpha virt. eigenvalues --    1.22989   1.23293   1.24085   1.24448   1.25270
 Alpha virt. eigenvalues --    1.25728   1.26408   1.27206   1.28067   1.28862
 Alpha virt. eigenvalues --    1.29046   1.29728   1.30556   1.31546   1.32146
 Alpha virt. eigenvalues --    1.32665   1.34535   1.34632   1.35329   1.36170
 Alpha virt. eigenvalues --    1.37844   1.39129   1.39268   1.40275   1.42049
 Alpha virt. eigenvalues --    1.42362   1.44057   1.45700   1.47063   1.48441
 Alpha virt. eigenvalues --    1.48915   1.51196   1.53548   1.54272   1.54503
 Alpha virt. eigenvalues --    1.56953   1.58107   1.58908   1.60341   1.61581
 Alpha virt. eigenvalues --    1.61933   1.63213   1.65390   1.66545   1.66914
 Alpha virt. eigenvalues --    1.68743   1.70008   1.72180   1.73113   1.73604
 Alpha virt. eigenvalues --    1.74009   1.76899   1.78302   1.79100   1.79869
 Alpha virt. eigenvalues --    1.81261   1.82401   1.83445   1.87893   1.88490
 Alpha virt. eigenvalues --    1.89600   1.91626   1.93960   1.94810   1.96401
 Alpha virt. eigenvalues --    1.96547   1.97715   1.99297   1.99698   2.01375
 Alpha virt. eigenvalues --    2.04384   2.04578   2.06134   2.07266   2.08620
 Alpha virt. eigenvalues --    2.10000   2.11130   2.11315   2.12050   2.12306
 Alpha virt. eigenvalues --    2.12583   2.13506   2.14626   2.15564   2.16181
 Alpha virt. eigenvalues --    2.16493   2.17635   2.18790   2.18824   2.19256
 Alpha virt. eigenvalues --    2.19619   2.20977   2.21831   2.22125   2.23578
 Alpha virt. eigenvalues --    2.24139   2.24874   2.25496   2.26480   2.26989
 Alpha virt. eigenvalues --    2.28267   2.29216   2.30289   2.30761   2.31612
 Alpha virt. eigenvalues --    2.32666   2.33657   2.34426   2.34498   2.35125
 Alpha virt. eigenvalues --    2.36622   2.37468   2.38041   2.38466   2.39454
 Alpha virt. eigenvalues --    2.40449   2.41083   2.42541   2.43602   2.44504
 Alpha virt. eigenvalues --    2.45452   2.46178   2.47921   2.49563   2.50826
 Alpha virt. eigenvalues --    2.51866   2.52672   2.54470   2.55000   2.55688
 Alpha virt. eigenvalues --    2.56864   2.57319   2.57563   2.59030   2.60479
 Alpha virt. eigenvalues --    2.61733   2.63063   2.63752   2.64252   2.64981
 Alpha virt. eigenvalues --    2.65613   2.68252   2.69312   2.70510   2.70998
 Alpha virt. eigenvalues --    2.71958   2.72232   2.73869   2.74883   2.75912
 Alpha virt. eigenvalues --    2.76988   2.77682   2.78283   2.79475   2.79602
 Alpha virt. eigenvalues --    2.81363   2.81863   2.83712   2.84656   2.86128
 Alpha virt. eigenvalues --    2.88025   2.88853   2.89103   2.95542   2.96800
 Alpha virt. eigenvalues --    2.97089   2.98289   2.98456   2.98668   3.02411
 Alpha virt. eigenvalues --    3.03494   3.04627   3.05442   3.06525   3.10267
 Alpha virt. eigenvalues --    3.11270   3.12602   3.13302   3.13867   3.15408
 Alpha virt. eigenvalues --    3.16815   3.17662   3.20527   3.29015   3.30328
 Alpha virt. eigenvalues --    3.31400   3.34298   3.34692   3.38842   3.40523
 Alpha virt. eigenvalues --    3.42586   3.43020   3.53307   3.55589   3.57490
 Alpha virt. eigenvalues --    3.60167   4.38313   4.40902   4.44732   4.46912
 Alpha virt. eigenvalues --    4.49110   4.51792   4.55382   4.57760   4.61929
 Alpha virt. eigenvalues --    4.63402   4.66721   4.67804   4.68658   4.70083
 Alpha virt. eigenvalues --    4.72516   4.77127   4.79564   4.82372   4.86180
 Alpha virt. eigenvalues --    4.88024   4.91008   4.91650   4.93987   4.98136
 Alpha virt. eigenvalues --    5.02190   5.12154   5.22107   5.23560
          Condensed to atoms (all electrons):
 Mulliken atomic charges:
              1
     1  C   -0.278993
     2  N   -0.782436
     3  C    0.821560
     4  O   -0.629953
     5  C    0.102431
     6  C   -0.471980
     7  C   -0.332481
     8  C   -0.319466
     9  C   -0.346627
    10  C   -0.207708
    11  C   -0.213802
    12  C   -0.326565
    13  C   -0.315821
    14  C   -0.327509
    15  C    0.092065
    16  C   -0.509885
    17  N   -0.787445
    18  C    0.767276
    19  C   -0.595575
    20  O   -0.613799
    21  C    0.819648
    22  O   -0.640309
    23  N   -0.806411
    24  C   -0.275450
    25  N   -0.843066
    26  C    0.744702
    27  C   -0.588671
    28  O   -0.591927
    29  H    0.186309
    30  H    0.197785
    31  H    0.163062
    32  H    0.391286
    33  H    0.199036
    34  H    0.144975
    35  H    0.211782
    36  H    0.162547
    37  H    0.174408
    38  H    0.167448
    39  H    0.172994
    40  H    0.222723
    41  H    0.178884
    42  H    0.190536
    43  H    0.182983
    44  H    0.175210
    45  H    0.174999
    46  H    0.141629
    47  H    0.193605
    48  H    0.174491
    49  H    0.180194
    50  H    0.184210
    51  H    0.149233
    52  H    0.226681
    53  H    0.389819
    54  H    0.211410
    55  H    0.208581
    56  H    0.176336
    57  H    0.396356
    58  H    0.166611
    59  H    0.196886
    60  H    0.185488
    61  H    0.382538
    62  H    0.218527
    63  H    0.177085
    64  H    0.201552
 Sum of Mulliken atomic charges =   0.00000
 Mulliken charges with hydrogens summed into heavy atoms:
              1
     1  C    0.268162
     2  N   -0.391150
     3  C    0.821560
     4  O   -0.629953
     5  C    0.102431
     6  C    0.083812
     7  C    0.004474
     8  C    0.020976
     9  C    0.054980
    10  C   -0.017172
    11  C   -0.030819
    12  C    0.023643
    13  C    0.019413
    14  C    0.027176
    15  C    0.092065
    16  C    0.050239
    17  N   -0.397626
    18  C    0.767276
    19  C    0.000752
    20  O   -0.613799
    21  C    0.819648
    22  O   -0.640309
    23  N   -0.410056
    24  C    0.273535
    25  N   -0.460528
    26  C    0.744702
    27  C    0.008493
    28  O   -0.591927
 Sum of Mulliken charges with hydrogens summed into heavy atoms =   0.00000
 Electronic spatial extent (au):  <R**2>=          20461.1473
 Charge=              0.0000 electrons
 Dipole moment (field-independent basis, Debye):
    X=              0.9526    Y=              5.3822    Z=              3.0316  Tot=              6.2503
 Quadrupole moment (field-independent basis, Debye-Ang):
   XX=           -205.7747   YY=           -156.3462   ZZ=           -169.7382
   XY=             29.4927   XZ=             -6.3860   YZ=             -1.8810
 Traceless Quadrupole moment (field-independent basis, Debye-Ang):
   XX=            -28.4883   YY=             20.9402   ZZ=              7.5481
   XY=             29.4927   XZ=             -6.3860   YZ=             -1.8810
 Octapole moment (field-independent basis, Debye-Ang**2):
  XXX=            109.5379  YYY=             20.4680  ZZZ=             -6.9559  XYY=            -61.6014
  XXY=            215.1479  XXZ=            104.1393  XZZ=             42.9570  YZZ=            -13.1105
  YYZ=            -14.4046  XYZ=            -34.4974
 Hexadecapole moment (field-independent basis, Debye-Ang**3):
 XXXX=         -25715.2247 YYYY=          -1991.3292 ZZZZ=          -1976.6325 XXXY=            686.1273
 XXXZ=            -45.4959 YYYX=            168.4736 YYYZ=             -3.2019 ZZZX=             64.2634
 ZZZY=              8.7557 XXYY=          -3565.0964 XXZZ=          -4006.2684 YYZZ=           -633.3041
 XXYZ=           -161.1052 YYXZ=             58.3014 ZZXY=             21.1557
 N-N= 2.717657088080D+03 E-N=-8.467289110036D+03  KE= 1.294170676349D+03
 1\1\GINC-MOSURA\SP\RHF\6-31G(d)\C20H36N4O4\MARIE\05-Dec-2019\0\\#SP HF
 /6-31G* Geom=(ModRedundant)\\paramfit run\\0,1\C,0,0.,0.,0.\N,0,1.4481
 87,0.,0.\C,0,2.1232,0.47592,1.072365\O,0,1.590179,0.696732,2.124447\C,
 0,3.650505,0.594143,0.921539\C,0,4.198902,1.549248,1.986845\C,0,4.3077
 51,-0.809116,1.023981\C,0,4.133566,-1.622781,2.319066\C,0,2.832729,-2.
 433298,2.484965\C,0,2.579342,-3.423586,1.372579\C,0,2.834093,-4.721989
 ,1.375535\C,0,4.163532,-5.397322,1.13832\C,0,4.858641,-5.895261,2.4183
 38\C,0,4.02946,-6.942674,3.173519\C,0,4.68642,-7.658131,4.382308\C,0,3
 .635642,-8.600281,4.991957\N,0,5.81717,-8.439571,3.900347\C,0,6.672983
 ,-9.062158,4.762337\C,0,7.98433,-9.5017,4.152437\O,0,6.411052,-9.25015
 3,5.917842\C,0,5.220328,-6.585005,5.358048\O,0,6.294651,-6.079232,5.17
 3783\N,0,4.39516,-6.176799,6.346201\C,0,4.850932,-5.211436,7.325255\N,
 0,3.997412,1.070275,-0.425452\C,0,3.587019,2.267163,-0.934086\C,0,4.32
 8148,2.727659,-2.172145\O,0,2.697134,2.905425,-0.447397\H,0,-0.403259,
 1.006147,0.\H,0,-0.36496,-0.516002,0.875939\H,0,-0.345658,-0.522086,-0
 .883346\H,0,1.904244,0.070913,-0.879357\H,0,3.932135,1.22176,2.980082\
 H,0,5.28092,1.595925,1.9075\H,0,3.792711,2.540594,1.848395\H,0,5.37458
 4,-0.64325,0.891407\H,0,3.984642,-1.403324,0.174983\H,0,4.961565,-2.32
 4757,2.354635\H,0,4.250121,-0.975721,3.182259\H,0,1.985724,-1.764045,2
 .562723\H,0,2.895638,-2.94811,3.437249\H,0,2.135502,-3.009181,0.481856
 \H,0,2.007131,-5.38621,1.572272\H,0,4.840183,-4.725298,0.624518\H,0,4.
 00793,-6.241734,0.467984\H,0,5.825599,-6.300257,2.133129\H,0,5.06758,-
 5.051655,3.062934\H,0,3.719002,-7.723811,2.482885\H,0,3.123641,-6.4712
 19,3.536247\H,0,3.402313,-9.373662,4.269448\H,0,2.713747,-8.071641,5.2
 11115\H,0,4.000244,-9.076836,5.889564\H,0,6.239791,-8.104359,3.065041\
 H,0,8.415163,-10.27984,4.763944\H,0,8.661761,-8.653136,4.140156\H,0,7.
 862434,-9.8579,3.135263\H,0,3.642221,-6.768338,6.607876\H,0,4.012644,-
 4.929614,7.948771\H,0,5.227681,-4.332551,6.823011\H,0,5.641255,-5.6143
 24,7.950415\H,0,4.82812,0.684785,-0.816437\H,0,3.710173,3.434604,-2.70
 6288\H,0,4.588171,1.902533,-2.825678\H,0,5.244771,3.226201,-1.873716\\
 Version=EM64L-G09RevA.02\State=1-A\HF=-1295.4772027\RMSD=5.071e-09\Dip
 ole=0.5412127,-0.6319565,-2.314014\Quadrupole=0.5767794,-16.3399054,15
 .763126,20.9023595,-13.0904178,0.6051532\PG=C01 [X(C20H36N4O4)]\\@


 THERE'S NOTHING WRONG WITH FOLLOWING A TRAIN OF THOUGHT...
 AS LONG AS IT ULTIMATELY PULLS INTO THE STATION.
 Job cpu time:  0 days  0 hours  6 minutes 38.5 seconds.
 File lengths (MBytes):  RWF=    132 Int=      0 D2E=      0 Chk=     10 Scr=      1
 Normal termination of Gaussian 09 at Thu Dec  5 18:09:33 2019.
