 Entering Gaussian System, Link 0=g09
 Input=CHI5_-30.gau
 Output=CHI5_-30.log
 Initial command:
 /home/marie/Utilities//g09/l1.exe /tmp/g09/Gau-7152.inp -scrdir=/tmp/g09/
 Entering Link 1 = /home/marie/Utilities//g09/l1.exe PID=      7154.
  
 Copyright (c) 1988,1990,1992,1993,1995,1998,2003,2009, Gaussian, Inc.
                  All Rights Reserved.
  
 This is part of the Gaussian(R) 09 program.  It is based on
 the Gaussian(R) 03 system (copyright 2003, Gaussian, Inc.),
 the Gaussian(R) 98 system (copyright 1998, Gaussian, Inc.),
 the Gaussian(R) 94 system (copyright 1995, Gaussian, Inc.),
 the Gaussian 92(TM) system (copyright 1992, Gaussian, Inc.),
 the Gaussian 90(TM) system (copyright 1990, Gaussian, Inc.),
 the Gaussian 88(TM) system (copyright 1988, Gaussian, Inc.),
 the Gaussian 86(TM) system (copyright 1986, Carnegie Mellon
 University), and the Gaussian 82(TM) system (copyright 1983,
 Carnegie Mellon University). Gaussian is a federally registered
 trademark of Gaussian, Inc.
  
 This software contains proprietary and confidential information,
 including trade secrets, belonging to Gaussian, Inc.
  
 This software is provided under written license and may be
 used, copied, transmitted, or stored only in accord with that
 written license.
  
 The following legend is applicable only to US Government
 contracts under FAR:
  
                    RESTRICTED RIGHTS LEGEND
  
 Use, reproduction and disclosure by the US Government is
 subject to restrictions as set forth in subparagraphs (a)
 and (c) of the Commercial Computer Software - Restricted
 Rights clause in FAR 52.227-19.
  
 Gaussian, Inc.
 340 Quinnipiac St., Bldg. 40, Wallingford CT 06492
  
  
 ---------------------------------------------------------------
 Warning -- This program may not be used in any manner that
 competes with the business of Gaussian, Inc. or will provide
 assistance to any competitor of Gaussian, Inc.  The licensee
 of this program is prohibited from giving any competitor of
 Gaussian, Inc. access to this program.  By using this program,
 the user acknowledges that Gaussian, Inc. is engaged in the
 business of creating and licensing software in the field of
 computational chemistry and represents and warrants to the
 licensee that it is not a competitor of Gaussian, Inc. and that
 it will not use this program in any manner prohibited above.
 ---------------------------------------------------------------
  

 Cite this work as:
 Gaussian 09, Revision A.02,
 M. J. Frisch, G. W. Trucks, H. B. Schlegel, G. E. Scuseria, 
 M. A. Robb, J. R. Cheeseman, G. Scalmani, V. Barone, B. Mennucci, 
 G. A. Petersson, H. Nakatsuji, M. Caricato, X. Li, H. P. Hratchian, 
 A. F. Izmaylov, J. Bloino, G. Zheng, J. L. Sonnenberg, M. Hada, 
 M. Ehara, K. Toyota, R. Fukuda, J. Hasegawa, M. Ishida, T. Nakajima, 
 Y. Honda, O. Kitao, H. Nakai, T. Vreven, J. A. Montgomery, Jr., 
 J. E. Peralta, F. Ogliaro, M. Bearpark, J. J. Heyd, E. Brothers, 
 K. N. Kudin, V. N. Staroverov, R. Kobayashi, J. Normand, 
 K. Raghavachari, A. Rendell, J. C. Burant, S. S. Iyengar, J. Tomasi, 
 M. Cossi, N. Rega, J. M. Millam, M. Klene, J. E. Knox, J. B. Cross, 
 V. Bakken, C. Adamo, J. Jaramillo, R. Gomperts, R. E. Stratmann, 
 O. Yazyev, A. J. Austin, R. Cammi, C. Pomelli, J. W. Ochterski, 
 R. L. Martin, K. Morokuma, V. G. Zakrzewski, G. A. Voth, 
 P. Salvador, J. J. Dannenberg, S. Dapprich, A. D. Daniels, 
 O. Farkas, J. B. Foresman, J. V. Ortiz, J. Cioslowski, 
 and D. J. Fox, Gaussian, Inc., Wallingford CT, 2009.
 
 ******************************************
 Gaussian 09:  EM64L-G09RevA.02 11-Jun-2009
                 5-Dec-2019 
 ******************************************
 %chk=CHI5_-30
 %NoSave
 ---------------------------------
 #SP HF/6-31G* Geom=(ModRedundant)
 ---------------------------------
 1/18=120,38=1/1;
 2/12=2,17=6,18=5,40=1/2;
 3/5=1,6=6,7=1,11=9,16=1,25=1,30=1/1,2,3;
 4//1;
 5/5=2,38=5/2;
 6/7=2,8=2,9=2,10=2,28=1/1;
 99/5=1,9=1/99;
 ------------
 paramfit run
 ------------
 Symbolic Z-matrix:
 Charge =  0 Multiplicity = 1
 C-CT--0.3208          0.        0.        0. 
 N-N--0.5622           1.44819   0.        0. 
 C-C-0.8053            2.1232    0.47592   1.07237 
 O-O--0.6151           1.59018   0.69673   2.12445 
 C-CX-0.0839           3.65051   0.59414   0.92154 
 C-CU--0.3230          4.1989    1.54925   1.98685 
 C-CU--0.0657          4.30775  -0.80912   1.02398 
 C-CU--0.0109          4.13357  -1.62278   2.31907 
 C-CU-0.0816           2.83273  -2.4333    2.48497 
 C-CM--0.2354          2.57934  -3.42359   1.37258 
 C-CM--0.2653          2.83409  -4.72199   1.37554 
 C-CU-0.1214           3.93126  -5.44065   2.12354 
 C-CU--0.0354          3.45972  -6.16751   3.3959 
 C-CU--0.0984          2.42067  -7.25848   3.10423 
 C-CU-0.1300           1.99269  -8.1869    4.27021 
 C-CU--0.3561          0.91036  -9.13785   3.73382 
 N-N--0.7186           3.15079  -8.96091   4.69594 
 C-C-0.8537            3.10748  -9.75936   5.80213 
 C-CT--0.3868          4.45655  -10.1889   6.33157 
 O-O--0.6323           2.08022  -10.09896   6.32036 
 C-C-0.7903            1.53537  -7.30778   5.45626 
 O-O--0.6136           2.34364  -6.85205   6.21976 
 N-N--0.5650           0.22313  -6.99722   5.53091 
 C-CT--0.3231         -0.28049  -6.21979   6.64454 
 N-N--0.7191           3.99741   1.07028  -0.42545 
 C-C-0.8539            3.58702   2.26716  -0.93409 
 C-CT--0.3903          4.32815   2.72766  -2.17214 
 O-O--0.6290           2.69713   2.90543  -0.4474 
 H-H1-0.1459          -0.40326   1.00615   0. 
 H-H1-0.1459          -0.36496  -0.516     0.87594 
 H-H1-0.1459          -0.34566  -0.52209  -0.88335 
 H-H-0.3572            1.90424   0.07091  -0.87936 
 H-HC-0.0997           3.93214   1.22176   2.98008 
 H-HC-0.0997           5.28092   1.59593   1.9075 
 H-HC-0.0997           3.79271   2.54059   1.8484 
 H-HC-0.0347           5.37458  -0.64325   0.89141 
 H-HC-0.0347           3.98464  -1.40332   0.17498 
 H-HC-0.0243           4.96157  -2.32476   2.35464 
 H-HC-0.0243           4.25012  -0.97572   3.18226 
 H-HC-0.0171           1.98572  -1.76405   2.56272 
 H-HC-0.0171           2.89564  -2.94811   3.43725 
 H-HA-0.1313           2.1355   -3.00918   0.48186 
 H-HA-0.1359           2.18969  -5.35219   0.78279 
 H-HC-0.0092           4.71481  -4.74585   2.40061 
 H-HC-0.0092           4.3914   -6.16426   1.45178 
 H-HC-0.0318           4.33645  -6.58846   3.88018 
 H-HC-0.0318           3.05396  -5.44439   4.09109 
 H-HC-0.0435           2.79011  -7.90645   2.31228 
 H-HC-0.0435           1.52119  -6.78747   2.7255 
 H-HC-0.1066           1.35381  -9.77852   2.98051 
 H-HC-0.1066           0.10428  -8.58807   3.25911 
 H-HC-0.1066           0.50792  -9.76517   4.51501 
 H-H-0.3529            4.03263  -8.53409   4.52594 
 H-HC-0.1047           4.33345  -11.07574   6.93441 
 H-HC-0.1047           4.85147  -9.39431   6.9575 
 H-HC-0.1047           5.16569  -10.38155   5.53383 
 H-H-0.3615           -0.42655  -7.5702    5.04622 
 H-H1-0.1469          -1.31854  -5.97901   6.45639 
 H-H1-0.1469           0.28332  -5.30286   6.7339 
 H-H1-0.1469          -0.20398  -6.76202   7.58149 
 H-H-0.3570            4.82812   0.68479  -0.81644 
 H-HC-0.1060           3.71017   3.4346   -2.70629 
 H-HC-0.1060           4.58817   1.90253  -2.82568 
 H-HC-0.1060           5.24477   3.2262   -1.87372 
 
 The following ModRedundant input section has been read:
 D    *   10   11    * F                                                       
 Stoichiometry    C20H36N4O4
 Framework group  C1[X(C20H36N4O4)]
 Deg. of freedom   186
 Full point group                 C1      NOp   1
 Largest Abelian subgroup         C1      NOp   1
 Largest concise Abelian subgroup C1      NOp   1
                         Standard orientation:                         
 ---------------------------------------------------------------------
 Center     Atomic      Atomic             Coordinates (Angstroms)
 Number     Number       Type             X           Y           Z
 ---------------------------------------------------------------------
      1          6    20001001       -4.284850    2.592521    1.562098
      2          7    20001014       -4.397449    1.235018    1.070413
      3          6    20001002       -4.359980    0.994036   -0.260990
      4          8    20001024       -4.014337    1.822409   -1.057278
      5          6    90000001       -4.653852   -0.450882   -0.702845
      6          6    90000002       -5.030346   -0.466745   -2.188053
      7          6    90000002       -3.425162   -1.356977   -0.418389
      8          6    90000002       -2.084691   -1.034374   -1.103007
      9          6    90000002       -1.193831    0.045785   -0.457823
     10          6    20001004       -0.831686   -0.235317    0.981660
     11          6    20001004        0.289204   -0.766788    1.441986
     12          6    90000002        1.188531   -1.759439    0.745128
     13          6    90000002        2.465194   -1.144506    0.143833
     14          6    90000002        3.365219   -0.494395    1.203184
     15          6    90000002        4.765013    0.005958    0.761743
     16          6    90000002        5.429714    0.663435    1.982132
     17          7    20001014        5.555630   -1.141731    0.338348
     18          6    20001002        6.783167   -0.988423   -0.238459
     19          6    20001001        7.305769   -2.209788   -0.959541
     20          8    20001024        7.406308    0.035091   -0.181375
     21          6    20001002        4.590539    0.947667   -0.451299
     22          8    20001024        4.489175    0.495352   -1.559931
     23          7    20001014        4.455390    2.267704   -0.199868
     24          6    20001001        4.339461    3.210629   -1.293327
     25          7    20001014       -5.736147   -1.025434    0.109534
     26          6    20001002       -6.995200   -0.505026    0.169812
     27          6    20001001       -8.042869   -1.423778    0.763447
     28          8    20001024       -7.255709    0.602373   -0.206942
     29          1    20001035       -5.136352    3.197930    1.273351
     30          1    20001035       -3.389118    3.050146    1.168442
     31          1    20001035       -4.217955    2.564431    2.642417
     32          1    20001029       -4.911334    0.590499    1.624311
     33          1    20001034       -4.252144   -0.027472   -2.793340
     34          1    20001034       -5.192986   -1.491486   -2.508507
     35          1    20001034       -5.934161    0.101375   -2.353232
     36          1    20001034       -3.716398   -2.354652   -0.739395
     37          1    20001034       -3.280479   -1.413401    0.655931
     38          1    20001034       -1.516277   -1.959753   -1.117031
     39          1    20001034       -2.252972   -0.768623   -2.141483
     40          1    20001034       -1.678416    1.011618   -0.518707
     41          1    20001034       -0.296276    0.122836   -1.061388
     42          1    20001033       -1.582384    0.038331    1.705319
     43          1    20001033        0.611734   -0.462257    2.425346
     44          1    20001034        0.649089   -2.263461   -0.047607
     45          1    20001034        1.469744   -2.532346    1.459361
     46          1    20001034        2.995602   -1.933131   -0.382581
     47          1    20001034        2.191273   -0.416483   -0.608351
     48          1    20001034        3.530231   -1.197029    2.017192
     49          1    20001034        2.842606    0.354842    1.627473
     50          1    20001034        5.600848   -0.096691    2.735460
     51          1    20001034        4.785291    1.417489    2.422021
     52          1    20001034        6.381189    1.105921    1.727889
     53          1    20001029        5.032083   -1.916931    0.001187
     54          1    20001034        8.378837   -2.135073   -1.048999
     55          1    20001034        6.874098   -2.234512   -1.955620
     56          1    20001034        7.042102   -3.129484   -0.448640
     57          1    20001029        4.779265    2.618749    0.670294
     58          1    20001035        4.119846    4.188234   -0.884697
     59          1    20001035        3.533349    2.913050   -1.947739
     60          1    20001035        5.252764    3.264671   -1.877033
     61          1    20001029       -5.647538   -1.994868    0.319041
     62          1    20001034       -8.867949   -0.826281    1.122908
     63          1    20001034       -7.648389   -2.027207    1.573267
     64          1    20001034       -8.410341   -2.091237   -0.009382
 ---------------------------------------------------------------------
 Rotational constants (GHZ):      0.4196715      0.0498102      0.0482517
 Standard basis: 6-31G(d) (6D, 7F)
 There are   492 symmetry adapted basis functions of A   symmetry.
 Integral buffers will be    131072 words long.
 Raffenetti 1 integral format.
 Two-electron integral symmetry is turned on.
   492 basis functions,   928 primitive gaussians,   492 cartesian basis functions
   108 alpha electrons      108 beta electrons
       nuclear repulsion energy      2693.1025976697 Hartrees.
 NAtoms=   64 NActive=   64 NUniq=   64 SFac= 7.50D-01 NAtFMM=   80 NAOKFM=F Big=T
 One-electron integrals computed using PRISM.
 NBasis=   492 RedAO= T  NBF=   492
 NBsUse=   492 1.00D-06 NBFU=   492
 Harris functional with IExCor=  205 diagonalized for initial guess.
 ExpMin= 1.61D-01 ExpMax= 5.48D+03 ExpMxC= 8.25D+02 IAcc=1 IRadAn=         1 AccDes= 0.00D+00
 HarFok:  IExCor=  205 AccDes= 0.00D+00 IRadAn=         1 IDoV= 1
 ScaDFX=  1.000000  1.000000  1.000000  1.000000
 FoFCou: FMM=F IPFlag=           0 FMFlag=      100000 FMFlg1=           1
         NFxFlg=           0 DoJE=T BraDBF=F KetDBF=T FulRan=T
         Omega=  0.000000  0.000000  1.000000  0.000000  0.000000 ICntrl=     500 IOpCl=  0
         NMat0=    1 NMatS0=    1 NMatT0=    0 NMatD0=    1 NMtDS0=    0 NMtDT0=    0
         I1Cent=           4 NGrid=           0.
 Petite list used in FoFCou.
 Initial guess orbital symmetries:
       Occupied  (A) (A) (A) (A) (A) (A) (A) (A) (A) (A) (A) (A)
                 (A) (A) (A) (A) (A) (A) (A) (A) (A) (A) (A) (A)
                 (A) (A) (A) (A) (A) (A) (A) (A) (A) (A) (A) (A)
                 (A) (A) (A) (A) (A) (A) (A) (A) (A) (A) (A) (A)
                 (A) (A) (A) (A) (A) (A) (A) (A) (A) (A) (A) (A)
                 (A) (A) (A) (A) (A) (A) (A) (A) (A) (A) (A) (A)
                 (A) (A) (A) (A) (A) (A) (A) (A) (A) (A) (A) (A)
                 (A) (A) (A) (A) (A) (A) (A) (A) (A) (A) (A) (A)
                 (A) (A) (A) (A) (A) (A) (A) (A) (A) (A) (A) (A)
       Virtual   (A) (A) (A) (A) (A) (A) (A) (A) (A) (A) (A) (A)
                 (A) (A) (A) (A) (A) (A) (A) (A) (A) (A) (A) (A)
                 (A) (A) (A) (A) (A) (A) (A) (A) (A) (A) (A) (A)
                 (A) (A) (A) (A) (A) (A) (A) (A) (A) (A) (A) (A)
                 (A) (A) (A) (A) (A) (A) (A) (A) (A) (A) (A) (A)
                 (A) (A) (A) (A) (A) (A) (A) (A) (A) (A) (A) (A)
                 (A) (A) (A) (A) (A) (A) (A) (A) (A) (A) (A) (A)
                 (A) (A) (A) (A) (A) (A) (A) (A) (A) (A) (A) (A)
                 (A) (A) (A) (A) (A) (A) (A) (A) (A) (A) (A) (A)
                 (A) (A) (A) (A) (A) (A) (A) (A) (A) (A) (A) (A)
                 (A) (A) (A) (A) (A) (A) (A) (A) (A) (A) (A) (A)
                 (A) (A) (A) (A) (A) (A) (A) (A) (A) (A) (A) (A)
                 (A) (A) (A) (A) (A) (A) (A) (A) (A) (A) (A) (A)
                 (A) (A) (A) (A) (A) (A) (A) (A) (A) (A) (A) (A)
                 (A) (A) (A) (A) (A) (A) (A) (A) (A) (A) (A) (A)
                 (A) (A) (A) (A) (A) (A) (A) (A) (A) (A) (A) (A)
                 (A) (A) (A) (A) (A) (A) (A) (A) (A) (A) (A) (A)
                 (A) (A) (A) (A) (A) (A) (A) (A) (A) (A) (A) (A)
                 (A) (A) (A) (A) (A) (A) (A) (A) (A) (A) (A) (A)
                 (A) (A) (A) (A) (A) (A) (A) (A) (A) (A) (A) (A)
                 (A) (A) (A) (A) (A) (A) (A) (A) (A) (A) (A) (A)
                 (A) (A) (A) (A) (A) (A) (A) (A) (A) (A) (A) (A)
                 (A) (A) (A) (A) (A) (A) (A) (A) (A) (A) (A) (A)
                 (A) (A) (A) (A) (A) (A) (A) (A) (A) (A) (A) (A)
                 (A) (A) (A) (A) (A) (A) (A) (A) (A) (A) (A) (A)
                 (A) (A) (A) (A) (A) (A) (A) (A) (A) (A) (A) (A)
                 (A) (A) (A) (A) (A) (A) (A) (A) (A) (A) (A) (A)
                 (A) (A) (A) (A) (A) (A) (A) (A) (A) (A) (A) (A)
                 (A) (A) (A) (A) (A) (A) (A) (A) (A) (A) (A) (A)
                 (A) (A) (A) (A) (A) (A) (A) (A) (A) (A) (A) (A)
                 (A) (A) (A) (A) (A) (A) (A) (A) (A) (A) (A) (A)
                 (A) (A) (A) (A) (A) (A) (A) (A) (A) (A) (A) (A)
 The electronic state of the initial guess is 1-A.
 Requested convergence on RMS density matrix=1.00D-08 within 128 cycles.
 Requested convergence on MAX density matrix=1.00D-06.
 Requested convergence on             energy=1.00D-06.
 No special actions if energy rises.
 Integral accuracy reduced to 1.0D-05 until final iterations.
 Initial convergence to 1.0D-05 achieved.  Increase integral accuracy.
 SCF Done:  E(RHF) =  -1295.60072421     A.U. after   14 cycles
             Convg  =    0.6155D-08             -V/T =  2.0012

 **********************************************************************

            Population analysis using the SCF density.

 **********************************************************************

 Orbital symmetries:
       Occupied  (A) (A) (A) (A) (A) (A) (A) (A) (A) (A) (A) (A)
                 (A) (A) (A) (A) (A) (A) (A) (A) (A) (A) (A) (A)
                 (A) (A) (A) (A) (A) (A) (A) (A) (A) (A) (A) (A)
                 (A) (A) (A) (A) (A) (A) (A) (A) (A) (A) (A) (A)
                 (A) (A) (A) (A) (A) (A) (A) (A) (A) (A) (A) (A)
                 (A) (A) (A) (A) (A) (A) (A) (A) (A) (A) (A) (A)
                 (A) (A) (A) (A) (A) (A) (A) (A) (A) (A) (A) (A)
                 (A) (A) (A) (A) (A) (A) (A) (A) (A) (A) (A) (A)
                 (A) (A) (A) (A) (A) (A) (A) (A) (A) (A) (A) (A)
       Virtual   (A) (A) (A) (A) (A) (A) (A) (A) (A) (A) (A) (A)
                 (A) (A) (A) (A) (A) (A) (A) (A) (A) (A) (A) (A)
                 (A) (A) (A) (A) (A) (A) (A) (A) (A) (A) (A) (A)
                 (A) (A) (A) (A) (A) (A) (A) (A) (A) (A) (A) (A)
                 (A) (A) (A) (A) (A) (A) (A) (A) (A) (A) (A) (A)
                 (A) (A) (A) (A) (A) (A) (A) (A) (A) (A) (A) (A)
                 (A) (A) (A) (A) (A) (A) (A) (A) (A) (A) (A) (A)
                 (A) (A) (A) (A) (A) (A) (A) (A) (A) (A) (A) (A)
                 (A) (A) (A) (A) (A) (A) (A) (A) (A) (A) (A) (A)
                 (A) (A) (A) (A) (A) (A) (A) (A) (A) (A) (A) (A)
                 (A) (A) (A) (A) (A) (A) (A) (A) (A) (A) (A) (A)
                 (A) (A) (A) (A) (A) (A) (A) (A) (A) (A) (A) (A)
                 (A) (A) (A) (A) (A) (A) (A) (A) (A) (A) (A) (A)
                 (A) (A) (A) (A) (A) (A) (A) (A) (A) (A) (A) (A)
                 (A) (A) (A) (A) (A) (A) (A) (A) (A) (A) (A) (A)
                 (A) (A) (A) (A) (A) (A) (A) (A) (A) (A) (A) (A)
                 (A) (A) (A) (A) (A) (A) (A) (A) (A) (A) (A) (A)
                 (A) (A) (A) (A) (A) (A) (A) (A) (A) (A) (A) (A)
                 (A) (A) (A) (A) (A) (A) (A) (A) (A) (A) (A) (A)
                 (A) (A) (A) (A) (A) (A) (A) (A) (A) (A) (A) (A)
                 (A) (A) (A) (A) (A) (A) (A) (A) (A) (A) (A) (A)
                 (A) (A) (A) (A) (A) (A) (A) (A) (A) (A) (A) (A)
                 (A) (A) (A) (A) (A) (A) (A) (A) (A) (A) (A) (A)
                 (A) (A) (A) (A) (A) (A) (A) (A) (A) (A) (A) (A)
                 (A) (A) (A) (A) (A) (A) (A) (A) (A) (A) (A) (A)
                 (A) (A) (A) (A) (A) (A) (A) (A) (A) (A) (A) (A)
                 (A) (A) (A) (A) (A) (A) (A) (A) (A) (A) (A) (A)
                 (A) (A) (A) (A) (A) (A) (A) (A) (A) (A) (A) (A)
                 (A) (A) (A) (A) (A) (A) (A) (A) (A) (A) (A) (A)
                 (A) (A) (A) (A) (A) (A) (A) (A) (A) (A) (A) (A)
                 (A) (A) (A) (A) (A) (A) (A) (A) (A) (A) (A) (A)
                 (A) (A) (A) (A) (A) (A) (A) (A) (A) (A) (A) (A)
 The electronic state is 1-A.
 Alpha  occ. eigenvalues --  -20.53640 -20.52052 -20.51862 -20.51595 -15.59597
 Alpha  occ. eigenvalues --  -15.57882 -15.57538 -15.57524 -11.35958 -11.34262
 Alpha  occ. eigenvalues --  -11.33871 -11.33678 -11.29017 -11.28567 -11.24946
 Alpha  occ. eigenvalues --  -11.24901 -11.24348 -11.24000 -11.23424 -11.22673
 Alpha  occ. eigenvalues --  -11.22539 -11.22535 -11.22280 -11.22140 -11.21941
 Alpha  occ. eigenvalues --  -11.21786 -11.21645 -11.20826  -1.40578  -1.39370
 Alpha  occ. eigenvalues --   -1.38719  -1.38094  -1.25424  -1.23550  -1.22596
 Alpha  occ. eigenvalues --   -1.22083  -1.10747  -1.09246  -1.07163  -1.04215
 Alpha  occ. eigenvalues --   -1.01215  -0.99317  -0.98741  -0.95518  -0.95179
 Alpha  occ. eigenvalues --   -0.94585  -0.92155  -0.87295  -0.85630  -0.82840
 Alpha  occ. eigenvalues --   -0.81250  -0.79489  -0.78670  -0.77183  -0.76865
 Alpha  occ. eigenvalues --   -0.72146  -0.71358  -0.71166  -0.68956  -0.67952
 Alpha  occ. eigenvalues --   -0.66652  -0.65795  -0.64506  -0.63885  -0.63681
 Alpha  occ. eigenvalues --   -0.62602  -0.62395  -0.61701  -0.61400  -0.61077
 Alpha  occ. eigenvalues --   -0.60884  -0.59907  -0.59331  -0.58665  -0.58463
 Alpha  occ. eigenvalues --   -0.58240  -0.57681  -0.56588  -0.56482  -0.56148
 Alpha  occ. eigenvalues --   -0.55359  -0.54816  -0.54725  -0.54567  -0.54168
 Alpha  occ. eigenvalues --   -0.53176  -0.52776  -0.52517  -0.52068  -0.51736
 Alpha  occ. eigenvalues --   -0.51024  -0.50460  -0.49764  -0.49342  -0.48781
 Alpha  occ. eigenvalues --   -0.48220  -0.47131  -0.46176  -0.45283  -0.42855
 Alpha  occ. eigenvalues --   -0.41924  -0.41509  -0.41068  -0.39285  -0.38835
 Alpha  occ. eigenvalues --   -0.38326  -0.38274  -0.32476
 Alpha virt. eigenvalues --    0.15330   0.18807   0.19668   0.20029   0.20215
 Alpha virt. eigenvalues --    0.21597   0.21877   0.23080   0.23604   0.23792
 Alpha virt. eigenvalues --    0.25472   0.25726   0.26427   0.26831   0.27478
 Alpha virt. eigenvalues --    0.27780   0.28176   0.28641   0.29165   0.29274
 Alpha virt. eigenvalues --    0.29515   0.30264   0.31149   0.31614   0.31918
 Alpha virt. eigenvalues --    0.32007   0.32416   0.32507   0.33219   0.33763
 Alpha virt. eigenvalues --    0.33841   0.34476   0.34820   0.35026   0.35201
 Alpha virt. eigenvalues --    0.35769   0.36117   0.36703   0.37112   0.38130
 Alpha virt. eigenvalues --    0.38538   0.39079   0.39350   0.39801   0.40268
 Alpha virt. eigenvalues --    0.40926   0.41821   0.42188   0.42901   0.43553
 Alpha virt. eigenvalues --    0.44833   0.44888   0.45460   0.47095   0.47459
 Alpha virt. eigenvalues --    0.47934   0.48660   0.49499   0.52173   0.52458
 Alpha virt. eigenvalues --    0.53329   0.55125   0.57699   0.58795   0.59306
 Alpha virt. eigenvalues --    0.61409   0.63338   0.64504   0.68644   0.70228
 Alpha virt. eigenvalues --    0.70953   0.71465   0.72208   0.72898   0.73250
 Alpha virt. eigenvalues --    0.73587   0.74693   0.75208   0.76153   0.76318
 Alpha virt. eigenvalues --    0.76743   0.77556   0.77826   0.78513   0.78989
 Alpha virt. eigenvalues --    0.79875   0.80237   0.80609   0.81517   0.81922
 Alpha virt. eigenvalues --    0.83119   0.84006   0.85179   0.85375   0.86650
 Alpha virt. eigenvalues --    0.86902   0.87881   0.88625   0.90504   0.90604
 Alpha virt. eigenvalues --    0.91528   0.92507   0.92635   0.93608   0.93995
 Alpha virt. eigenvalues --    0.94261   0.95899   0.96856   0.97289   0.97825
 Alpha virt. eigenvalues --    0.98757   0.98900   0.99876   1.00111   1.00440
 Alpha virt. eigenvalues --    1.01538   1.02041   1.02606   1.02888   1.03740
 Alpha virt. eigenvalues --    1.03994   1.04745   1.05253   1.06554   1.06996
 Alpha virt. eigenvalues --    1.07557   1.08369   1.08759   1.10318   1.11075
 Alpha virt. eigenvalues --    1.11553   1.12231   1.12743   1.13592   1.14147
 Alpha virt. eigenvalues --    1.14336   1.14651   1.15008   1.15257   1.15736
 Alpha virt. eigenvalues --    1.16265   1.16339   1.16877   1.17157   1.18037
 Alpha virt. eigenvalues --    1.18239   1.18456   1.18567   1.19041   1.19287
 Alpha virt. eigenvalues --    1.19873   1.19904   1.20344   1.20897   1.21687
 Alpha virt. eigenvalues --    1.21779   1.22131   1.22356   1.22681   1.22766
 Alpha virt. eigenvalues --    1.23613   1.23812   1.24120   1.24976   1.25958
 Alpha virt. eigenvalues --    1.26778   1.27131   1.27997   1.29106   1.29356
 Alpha virt. eigenvalues --    1.29802   1.31156   1.32072   1.32593   1.33225
 Alpha virt. eigenvalues --    1.34102   1.34209   1.35202   1.36544   1.36754
 Alpha virt. eigenvalues --    1.37462   1.39260   1.39655   1.40765   1.42134
 Alpha virt. eigenvalues --    1.43985   1.44218   1.45563   1.47517   1.48734
 Alpha virt. eigenvalues --    1.49812   1.51602   1.53765   1.54527   1.55122
 Alpha virt. eigenvalues --    1.56823   1.58645   1.59602   1.60607   1.61570
 Alpha virt. eigenvalues --    1.62203   1.63743   1.64156   1.66434   1.68052
 Alpha virt. eigenvalues --    1.68514   1.70866   1.72189   1.72434   1.73660
 Alpha virt. eigenvalues --    1.73960   1.76610   1.78107   1.79098   1.80095
 Alpha virt. eigenvalues --    1.80488   1.81594   1.84598   1.88792   1.89003
 Alpha virt. eigenvalues --    1.90419   1.90830   1.92198   1.93496   1.94565
 Alpha virt. eigenvalues --    1.95825   1.96775   1.98480   1.99802   2.01682
 Alpha virt. eigenvalues --    2.04309   2.04739   2.05564   2.06496   2.07613
 Alpha virt. eigenvalues --    2.09386   2.10835   2.11654   2.11959   2.12274
 Alpha virt. eigenvalues --    2.12473   2.13446   2.14512   2.15687   2.16043
 Alpha virt. eigenvalues --    2.16277   2.17616   2.18303   2.19058   2.19276
 Alpha virt. eigenvalues --    2.20087   2.20593   2.21834   2.23000   2.23459
 Alpha virt. eigenvalues --    2.24530   2.25445   2.25646   2.26813   2.27233
 Alpha virt. eigenvalues --    2.28309   2.29307   2.30053   2.30897   2.31463
 Alpha virt. eigenvalues --    2.32680   2.34051   2.34535   2.34948   2.35865
 Alpha virt. eigenvalues --    2.36832   2.37518   2.38109   2.38941   2.39254
 Alpha virt. eigenvalues --    2.40800   2.41664   2.41750   2.43391   2.44129
 Alpha virt. eigenvalues --    2.45120   2.45774   2.47372   2.49475   2.50884
 Alpha virt. eigenvalues --    2.52125   2.52554   2.54633   2.55180   2.56390
 Alpha virt. eigenvalues --    2.56925   2.57360   2.58490   2.59933   2.61275
 Alpha virt. eigenvalues --    2.62800   2.63436   2.64348   2.64768   2.65379
 Alpha virt. eigenvalues --    2.67120   2.68138   2.69960   2.70588   2.71002
 Alpha virt. eigenvalues --    2.72196   2.72834   2.74186   2.75159   2.76334
 Alpha virt. eigenvalues --    2.76859   2.77411   2.78019   2.78972   2.79510
 Alpha virt. eigenvalues --    2.80836   2.81665   2.84046   2.84248   2.86341
 Alpha virt. eigenvalues --    2.86791   2.88095   2.88726   2.95194   2.95827
 Alpha virt. eigenvalues --    2.96929   2.98028   2.98337   2.99482   3.03449
 Alpha virt. eigenvalues --    3.04059   3.04990   3.05292   3.05720   3.06550
 Alpha virt. eigenvalues --    3.11054   3.11422   3.13099   3.14332   3.15648
 Alpha virt. eigenvalues --    3.16491   3.18391   3.21878   3.29604   3.30603
 Alpha virt. eigenvalues --    3.34400   3.34608   3.38288   3.38968   3.40656
 Alpha virt. eigenvalues --    3.42732   3.43010   3.53278   3.55722   3.57598
 Alpha virt. eigenvalues --    3.60145   4.38463   4.40905   4.44705   4.46898
 Alpha virt. eigenvalues --    4.49189   4.51888   4.55103   4.58092   4.61705
 Alpha virt. eigenvalues --    4.63583   4.66577   4.67611   4.68548   4.70248
 Alpha virt. eigenvalues --    4.71651   4.77214   4.79046   4.83043   4.84291
 Alpha virt. eigenvalues --    4.87978   4.89959   4.94158   4.95526   4.98458
 Alpha virt. eigenvalues --    5.02607   5.12123   5.21972   5.23738
          Condensed to atoms (all electrons):
 Mulliken atomic charges:
              1
     1  C   -0.279396
     2  N   -0.783132
     3  C    0.821671
     4  O   -0.628740
     5  C    0.102261
     6  C   -0.472570
     7  C   -0.333690
     8  C   -0.315732
     9  C   -0.370215
    10  C   -0.184940
    11  C   -0.182624
    12  C   -0.350499
    13  C   -0.314110
    14  C   -0.329189
    15  C    0.091588
    16  C   -0.509761
    17  N   -0.787634
    18  C    0.767333
    19  C   -0.595653
    20  O   -0.613726
    21  C    0.820435
    22  O   -0.640023
    23  N   -0.805769
    24  C   -0.275569
    25  N   -0.843000
    26  C    0.744613
    27  C   -0.588696
    28  O   -0.591840
    29  H    0.186838
    30  H    0.197811
    31  H    0.162609
    32  H    0.391461
    33  H    0.199291
    34  H    0.144226
    35  H    0.212306
    36  H    0.161359
    37  H    0.180609
    38  H    0.163895
    39  H    0.178513
    40  H    0.217260
    41  H    0.180043
    42  H    0.180805
    43  H    0.171933
    44  H    0.177838
    45  H    0.166328
    46  H    0.148112
    47  H    0.198516
    48  H    0.173300
    49  H    0.184702
    50  H    0.183507
    51  H    0.149040
    52  H    0.226674
    53  H    0.389675
    54  H    0.211246
    55  H    0.209217
    56  H    0.176124
    57  H    0.395646
    58  H    0.165875
    59  H    0.199175
    60  H    0.184820
    61  H    0.382632
    62  H    0.218592
    63  H    0.177237
    64  H    0.201390
 Sum of Mulliken atomic charges =   0.00000
 Mulliken charges with hydrogens summed into heavy atoms:
              1
     1  C    0.267862
     2  N   -0.391672
     3  C    0.821671
     4  O   -0.628740
     5  C    0.102261
     6  C    0.083254
     7  C    0.008279
     8  C    0.026676
     9  C    0.027088
    10  C   -0.004135
    11  C   -0.010691
    12  C   -0.006332
    13  C    0.032518
    14  C    0.028813
    15  C    0.091588
    16  C    0.049459
    17  N   -0.397959
    18  C    0.767333
    19  C    0.000935
    20  O   -0.613726
    21  C    0.820435
    22  O   -0.640023
    23  N   -0.410123
    24  C    0.274301
    25  N   -0.460368
    26  C    0.744613
    27  C    0.008524
    28  O   -0.591840
 Sum of Mulliken charges with hydrogens summed into heavy atoms =   0.00000
 Electronic spatial extent (au):  <R**2>=          21780.2236
 Charge=              0.0000 electrons
 Dipole moment (field-independent basis, Debye):
    X=             -2.5415    Y=             -5.4569    Z=              5.1123  Tot=              7.8977
 Quadrupole moment (field-independent basis, Debye-Ang):
   XX=           -195.3289   YY=           -156.3662   ZZ=           -171.6451
   XY=             22.8775   XZ=             -7.5175   YZ=              8.9363
 Traceless Quadrupole moment (field-independent basis, Debye-Ang):
   XX=            -20.8822   YY=             18.0805   ZZ=              2.8016
   XY=             22.8775   XZ=             -7.5175   YZ=              8.9363
 Octapole moment (field-independent basis, Debye-Ang**2):
  XXX=           -263.5559  YYY=             23.7019  ZZZ=              7.0575  XYY=             64.1441
  XXY=           -248.8493  XXZ=            132.2466  XZZ=            -20.7645  YZZ=              7.3589
  YYZ=              4.7886  XYZ=             -8.1980
 Hexadecapole moment (field-independent basis, Debye-Ang**3):
 XXXX=         -27048.0911 YYYY=          -2143.7167 ZZZZ=          -1416.7194 XXXY=            699.2973
 XXXZ=           -545.5991 YYYX=            126.3115 YYYZ=             19.9008 ZZZX=            -37.2694
 ZZZY=              5.0714 XXYY=          -4022.0671 XXZZ=          -4307.5513 YYZZ=           -605.3373
 XXYZ=            221.8444 YYXZ=           -111.0699 ZZXY=              2.2355
 N-N= 2.693102597670D+03 E-N=-8.418271301661D+03  KE= 1.294045584126D+03
 1\1\GINC-MOSURA\SP\RHF\6-31G(d)\C20H36N4O4\MARIE\05-Dec-2019\0\\#SP HF
 /6-31G* Geom=(ModRedundant)\\paramfit run\\0,1\C,0,0.,0.,0.\N,0,1.4481
 87,0.,0.\C,0,2.1232,0.47592,1.072365\O,0,1.590179,0.696732,2.124447\C,
 0,3.650505,0.594143,0.921539\C,0,4.198902,1.549248,1.986845\C,0,4.3077
 51,-0.809116,1.023981\C,0,4.133566,-1.622781,2.319066\C,0,2.832729,-2.
 433298,2.484965\C,0,2.579342,-3.423586,1.372579\C,0,2.834093,-4.721989
 ,1.375535\C,0,3.931256,-5.440653,2.123539\C,0,3.459718,-6.167509,3.395
 898\C,0,2.42067,-7.258482,3.104227\C,0,1.99269,-8.186905,4.270207\C,0,
 0.910359,-9.137854,3.733823\N,0,3.15079,-8.960912,4.695937\C,0,3.10747
 6,-9.759355,5.802133\C,0,4.456547,-10.188902,6.331568\O,0,2.080223,-10
 .09896,6.320364\C,0,1.535365,-7.307784,5.456262\O,0,2.343638,-6.852052
 ,6.219763\N,0,0.223131,-6.997221,5.530908\C,0,-0.280487,-6.219786,6.64
 4535\N,0,3.997412,1.070275,-0.425452\C,0,3.587019,2.267163,-0.934086\C
 ,0,4.328148,2.727659,-2.172145\O,0,2.697134,2.905425,-0.447397\H,0,-0.
 403259,1.006147,0.\H,0,-0.36496,-0.516002,0.875939\H,0,-0.345658,-0.52
 2086,-0.883346\H,0,1.904244,0.070913,-0.879357\H,0,3.932135,1.22176,2.
 980082\H,0,5.28092,1.595925,1.9075\H,0,3.792711,2.540594,1.848395\H,0,
 5.374584,-0.64325,0.891407\H,0,3.984642,-1.403324,0.174983\H,0,4.96156
 5,-2.324757,2.354635\H,0,4.250121,-0.975721,3.182259\H,0,1.985724,-1.7
 64045,2.562723\H,0,2.895638,-2.94811,3.437249\H,0,2.135502,-3.009181,0
 .481856\H,0,2.189686,-5.352189,0.782787\H,0,4.714807,-4.745854,2.40061
 1\H,0,4.391405,-6.164256,1.451783\H,0,4.336447,-6.588457,3.880175\H,0,
 3.053961,-5.444393,4.091092\H,0,2.790106,-7.906452,2.312277\H,0,1.5211
 92,-6.78747,2.725497\H,0,1.353813,-9.778518,2.98051\H,0,0.104278,-8.58
 8071,3.259109\H,0,0.507923,-9.76517,4.515013\H,0,4.032626,-8.534086,4.
 525942\H,0,4.333451,-11.075745,6.934409\H,0,4.851472,-9.394314,6.95749
 9\H,0,5.165693,-10.381549,5.533834\H,0,-0.426549,-7.570199,5.04622\H,0
 ,-1.318537,-5.979006,6.45639\H,0,0.283318,-5.302855,6.733899\H,0,-0.20
 3977,-6.762018,7.581491\H,0,4.82812,0.684785,-0.816437\H,0,3.710173,3.
 434604,-2.706288\H,0,4.588171,1.902533,-2.825678\H,0,5.244771,3.226201
 ,-1.873716\\Version=EM64L-G09RevA.02\State=1-A\HF=-1295.6007242\RMSD=6
 .155e-09\Dipole=1.4073348,-0.4587641,-2.731937\Quadrupole=18.3710497,-
 23.0605082,4.6894584,10.3592549,-4.9034877,0.8501728\PG=C01 [X(C20H36N
 4O4)]\\@


 ALL MY ATTEMPTS TO ADAPT THE THEORETICAL FOUNDATIONS OF PHYSICS
 TO THESE NEW NOTIONS FAILED COMPLETELY. IT WAS AS IF THE GROUND HAD
 BEEN PULLED OUT FROM UNDER ONE WITH NO FIRM FOUNDATION TO BE SEEN ANYWHERE,
 UPON WHICH ONE COULD HAVE BUILT.  -- A.EINSTEIN
 Job cpu time:  0 days  0 hours  5 minutes 25.7 seconds.
 File lengths (MBytes):  RWF=    132 Int=      0 D2E=      0 Chk=     10 Scr=      1
 Normal termination of Gaussian 09 at Thu Dec  5 17:25:03 2019.
