 Entering Gaussian System, Link 0=g09
 Input=CHI5_-170.gau
 Output=CHI5_-170.log
 Initial command:
 /home/marie/Utilities//g09/l1.exe /tmp/g09/Gau-6354.inp -scrdir=/tmp/g09/
 Entering Link 1 = /home/marie/Utilities//g09/l1.exe PID=      6356.
  
 Copyright (c) 1988,1990,1992,1993,1995,1998,2003,2009, Gaussian, Inc.
                  All Rights Reserved.
  
 This is part of the Gaussian(R) 09 program.  It is based on
 the Gaussian(R) 03 system (copyright 2003, Gaussian, Inc.),
 the Gaussian(R) 98 system (copyright 1998, Gaussian, Inc.),
 the Gaussian(R) 94 system (copyright 1995, Gaussian, Inc.),
 the Gaussian 92(TM) system (copyright 1992, Gaussian, Inc.),
 the Gaussian 90(TM) system (copyright 1990, Gaussian, Inc.),
 the Gaussian 88(TM) system (copyright 1988, Gaussian, Inc.),
 the Gaussian 86(TM) system (copyright 1986, Carnegie Mellon
 University), and the Gaussian 82(TM) system (copyright 1983,
 Carnegie Mellon University). Gaussian is a federally registered
 trademark of Gaussian, Inc.
  
 This software contains proprietary and confidential information,
 including trade secrets, belonging to Gaussian, Inc.
  
 This software is provided under written license and may be
 used, copied, transmitted, or stored only in accord with that
 written license.
  
 The following legend is applicable only to US Government
 contracts under FAR:
  
                    RESTRICTED RIGHTS LEGEND
  
 Use, reproduction and disclosure by the US Government is
 subject to restrictions as set forth in subparagraphs (a)
 and (c) of the Commercial Computer Software - Restricted
 Rights clause in FAR 52.227-19.
  
 Gaussian, Inc.
 340 Quinnipiac St., Bldg. 40, Wallingford CT 06492
  
  
 ---------------------------------------------------------------
 Warning -- This program may not be used in any manner that
 competes with the business of Gaussian, Inc. or will provide
 assistance to any competitor of Gaussian, Inc.  The licensee
 of this program is prohibited from giving any competitor of
 Gaussian, Inc. access to this program.  By using this program,
 the user acknowledges that Gaussian, Inc. is engaged in the
 business of creating and licensing software in the field of
 computational chemistry and represents and warrants to the
 licensee that it is not a competitor of Gaussian, Inc. and that
 it will not use this program in any manner prohibited above.
 ---------------------------------------------------------------
  

 Cite this work as:
 Gaussian 09, Revision A.02,
 M. J. Frisch, G. W. Trucks, H. B. Schlegel, G. E. Scuseria, 
 M. A. Robb, J. R. Cheeseman, G. Scalmani, V. Barone, B. Mennucci, 
 G. A. Petersson, H. Nakatsuji, M. Caricato, X. Li, H. P. Hratchian, 
 A. F. Izmaylov, J. Bloino, G. Zheng, J. L. Sonnenberg, M. Hada, 
 M. Ehara, K. Toyota, R. Fukuda, J. Hasegawa, M. Ishida, T. Nakajima, 
 Y. Honda, O. Kitao, H. Nakai, T. Vreven, J. A. Montgomery, Jr., 
 J. E. Peralta, F. Ogliaro, M. Bearpark, J. J. Heyd, E. Brothers, 
 K. N. Kudin, V. N. Staroverov, R. Kobayashi, J. Normand, 
 K. Raghavachari, A. Rendell, J. C. Burant, S. S. Iyengar, J. Tomasi, 
 M. Cossi, N. Rega, J. M. Millam, M. Klene, J. E. Knox, J. B. Cross, 
 V. Bakken, C. Adamo, J. Jaramillo, R. Gomperts, R. E. Stratmann, 
 O. Yazyev, A. J. Austin, R. Cammi, C. Pomelli, J. W. Ochterski, 
 R. L. Martin, K. Morokuma, V. G. Zakrzewski, G. A. Voth, 
 P. Salvador, J. J. Dannenberg, S. Dapprich, A. D. Daniels, 
 O. Farkas, J. B. Foresman, J. V. Ortiz, J. Cioslowski, 
 and D. J. Fox, Gaussian, Inc., Wallingford CT, 2009.
 
 ******************************************
 Gaussian 09:  EM64L-G09RevA.02 11-Jun-2009
                 5-Dec-2019 
 ******************************************
 %chk=CHI5_-170
 %NoSave
 ---------------------------------
 #SP HF/6-31G* Geom=(ModRedundant)
 ---------------------------------
 1/18=120,38=1/1;
 2/12=2,17=6,18=5,40=1/2;
 3/5=1,6=6,7=1,11=9,16=1,25=1,30=1/1,2,3;
 4//1;
 5/5=2,38=5/2;
 6/7=2,8=2,9=2,10=2,28=1/1;
 99/5=1,9=1/99;
 ------------
 paramfit run
 ------------
 Symbolic Z-matrix:
 Charge =  0 Multiplicity = 1
 C-CT--0.3208          0.        0.        0. 
 N-N--0.5622           1.44819   0.        0. 
 C-C-0.8053            2.1232    0.47592   1.07237 
 O-O--0.6151           1.59018   0.69673   2.12445 
 C-CX-0.0839           3.65051   0.59414   0.92154 
 C-CU--0.3230          4.1989    1.54925   1.98685 
 C-CU--0.0657          4.30775  -0.80912   1.02398 
 C-CU--0.0109          4.13357  -1.62278   2.31907 
 C-CU-0.0816           2.83273  -2.4333    2.48497 
 C-CM--0.2354          2.57934  -3.42359   1.37258 
 C-CM--0.2653          2.83409  -4.72199   1.37554 
 C-CU-0.1214           2.77658  -5.67158   0.20305 
 C-CU--0.0354          4.15192  -6.0403   -0.38179 
 C-CU--0.0984          5.05811  -6.74663   0.63548 
 C-CU-0.1300           6.40272  -7.33106   0.13042 
 C-CU--0.3561          7.13817  -7.92138   1.34454 
 N-N--0.7186           6.11738  -8.39143  -0.82653 
 C-C-0.8537            7.11157  -8.99046  -1.54472 
 C-CT--0.3868          6.64349  -9.78048  -2.74538 
 O-O--0.6323           8.27134  -8.90148  -1.25119 
 C-C-0.7903            7.18007  -6.21406  -0.60223 
 O-O--0.6136           6.94457  -5.96749  -1.75448 
 N-N--0.5650           8.04336  -5.47517   0.12766 
 C-CT--0.3231          8.84118  -4.44637  -0.50737 
 N-N--0.7191           3.99741   1.07028  -0.42545 
 C-C-0.8539            3.58702   2.26716  -0.93409 
 C-CT--0.3903          4.32815   2.72766  -2.17214 
 O-O--0.6290           2.69713   2.90543  -0.4474 
 H-H1-0.1459          -0.40326   1.00615   0. 
 H-H1-0.1459          -0.36496  -0.516     0.87594 
 H-H1-0.1459          -0.34566  -0.52209  -0.88335 
 H-H-0.3572            1.90424   0.07091  -0.87936 
 H-HC-0.0997           3.93214   1.22176   2.98008 
 H-HC-0.0997           5.28092   1.59593   1.9075 
 H-HC-0.0997           3.79271   2.54059   1.8484 
 H-HC-0.0347           5.37458  -0.64325   0.89141 
 H-HC-0.0347           3.98464  -1.40332   0.17498 
 H-HC-0.0243           4.96157  -2.32476   2.35464 
 H-HC-0.0243           4.25012  -0.97572   3.18226 
 H-HC-0.0171           1.98572  -1.76405   2.56272 
 H-HC-0.0171           2.89564  -2.94811   3.43725 
 H-HA-0.1313           2.1355   -3.00918   0.48186 
 H-HA-0.1359           3.12059  -5.16605   2.31601 
 H-HC-0.0092           2.17178  -5.25162  -0.59151 
 H-HC-0.0092           2.27038  -6.58253   0.52009 
 H-HC-0.0318           3.98338  -6.66941  -1.25138 
 H-HC-0.0318           4.63498  -5.14521  -0.751 
 H-HC-0.0435           4.51443  -7.57091   1.0921 
 H-HC-0.0435           5.29261  -6.05045   1.43216 
 H-HC-0.1066           6.56461  -8.759     1.724 
 H-HC-0.1066           7.22046  -7.19439   2.14585 
 H-HC-0.1066           8.12186  -8.27911   1.07972 
 H-H-0.3529            5.25043  -8.30843  -1.30634 
 H-HC-0.1047           7.40506  -10.49574  -3.01644 
 H-HC-0.1047           6.49812  -9.09521  -3.57508 
 H-HC-0.1047           5.70689  -10.29378  -2.55646 
 H-H-0.3615            8.38278  -5.85103   0.98137 
 H-H1-0.1469           9.36961  -3.89606   0.26 
 H-H1-0.1469           8.198    -3.76768  -1.04805 
 H-H1-0.1469           9.55942  -4.86641  -1.2041 
 H-H-0.3570            4.82812   0.68479  -0.81644 
 H-HC-0.1060           3.71017   3.4346   -2.70629 
 H-HC-0.1060           4.58817   1.90253  -2.82568 
 H-HC-0.1060           5.24477   3.2262   -1.87372 
 
 The following ModRedundant input section has been read:
 D    *   10   11    * F                                                       
 Stoichiometry    C20H36N4O4
 Framework group  C1[X(C20H36N4O4)]
 Deg. of freedom   186
 Full point group                 C1      NOp   1
 Largest Abelian subgroup         C1      NOp   1
 Largest concise Abelian subgroup C1      NOp   1
                         Standard orientation:                         
 ---------------------------------------------------------------------
 Center     Atomic      Atomic             Coordinates (Angstroms)
 Number     Number       Type             X           Y           Z
 ---------------------------------------------------------------------
      1          6    20001001       -4.879945   -2.260095   -1.829474
      2          7    20001014       -4.280023   -1.100630   -1.202592
      3          6    20001002       -4.555003   -0.814968    0.091584
      4          8    20001024       -5.097779   -1.595613    0.823522
      5          6    90000001       -4.011440    0.521872    0.627105
      6          6    90000002       -4.770591    0.911531    1.899778
      7          6    90000002       -2.484443    0.411920    0.887478
      8          6    90000002       -1.973112   -0.621590    1.907299
      9          6    90000002       -1.799709   -2.075889    1.426068
     10          6    20001004       -0.881100   -2.224203    0.235925
     11          6    20001004        0.396108   -2.569841    0.241439
     12          6    90000002        1.366124   -2.518602   -0.914501
     13          6    90000002        2.336878   -1.324612   -0.874632
     14          6    90000002        3.231262   -1.329737    0.372350
     15          6    90000002        4.374707   -0.285360    0.452680
     16          6    90000002        5.070684   -0.461851    1.812062
     17          7    20001014        5.325211   -0.554919   -0.617560
     18          6    20001002        6.361512    0.293316   -0.881446
     19          6    20001001        7.020694    0.095207   -2.227194
     20          8    20001024        6.727412    1.134692   -0.108565
     21          6    20001002        3.773863    1.120122    0.223918
     22          8    20001024        3.588053    1.525425   -0.891937
     23          7    20001014        3.379421    1.813143    1.313927
     24          6    20001001        2.855292    3.156278    1.174365
     25          7    20001014       -4.140490    1.573182   -0.392465
     26          6    20001002       -5.331590    1.966253   -0.927673
     27          6    20001001       -5.295915    3.280289   -1.680106
     28          8    20001024       -6.333103    1.316487   -0.823202
     29          1    20001035       -5.955210   -2.158040   -1.920798
     30          1    20001035       -4.667470   -3.142495   -1.243857
     31          1    20001035       -4.448890   -2.381897   -2.815228
     32          1    20001029       -4.052596   -0.331813   -1.788666
     33          1    20001034       -4.701278    0.137509    2.648789
     34          1    20001034       -4.355241    1.831265    2.300793
     35          1    20001034       -5.817570    1.063831    1.681681
     36          1    20001034       -2.176766    1.392454    1.243999
     37          1    20001034       -1.982950    0.263114   -0.063648
     38          1    20001034       -1.000606   -0.270244    2.239574
     39          1    20001034       -2.609534   -0.621871    2.786128
     40          1    20001034       -2.763761   -2.504437    1.184587
     41          1    20001034       -1.419961   -2.647668    2.265529
     42          1    20001033       -1.335195   -2.025978   -0.721477
     43          1    20001033        0.805993   -2.927712    1.172935
     44          1    20001034        0.829129   -2.487763   -1.854794
     45          1    20001034        1.941750   -3.443345   -0.924384
     46          1    20001034        2.936313   -1.355656   -1.780220
     47          1    20001034        1.772073   -0.402931   -0.922899
     48          1    20001034        3.696859   -2.307206    0.478698
     49          1    20001034        2.607118   -1.186574    1.246591
     50          1    20001034        5.544942   -1.436084    1.835105
     51          1    20001034        4.355131   -0.429515    2.627119
     52          1    20001034        5.831969    0.287189    1.970561
     53          1    20001029        4.947081   -1.010051   -1.416674
     54          1    20001034        8.013417    0.518083   -2.200018
     55          1    20001034        6.438632    0.620854   -2.978210
     56          1    20001034        7.074017   -0.951733   -2.505503
     57          1    20001029        3.759786    1.563319    2.196095
     58          1    20001035        2.488001    3.485620    2.137459
     59          1    20001035        2.039259    3.157744    0.466753
     60          1    20001035        3.613208    3.850057    0.825096
     61          1    20001029       -3.402816    2.241645   -0.415732
     62          1    20001034       -6.127780    3.311092   -2.368601
     63          1    20001034       -4.367201    3.417762   -2.222455
     64          1    20001034       -5.401004    4.097876   -0.974196
 ---------------------------------------------------------------------
 Rotational constants (GHZ):      0.3006622      0.0616712      0.0578504
 Standard basis: 6-31G(d) (6D, 7F)
 There are   492 symmetry adapted basis functions of A   symmetry.
 Integral buffers will be    131072 words long.
 Raffenetti 1 integral format.
 Two-electron integral symmetry is turned on.
   492 basis functions,   928 primitive gaussians,   492 cartesian basis functions
   108 alpha electrons      108 beta electrons
       nuclear repulsion energy      2736.7649879100 Hartrees.
 NAtoms=   64 NActive=   64 NUniq=   64 SFac= 7.50D-01 NAtFMM=   80 NAOKFM=F Big=T
 One-electron integrals computed using PRISM.
 NBasis=   492 RedAO= T  NBF=   492
 NBsUse=   492 1.00D-06 NBFU=   492
 Harris functional with IExCor=  205 diagonalized for initial guess.
 ExpMin= 1.61D-01 ExpMax= 5.48D+03 ExpMxC= 8.25D+02 IAcc=1 IRadAn=         1 AccDes= 0.00D+00
 HarFok:  IExCor=  205 AccDes= 0.00D+00 IRadAn=         1 IDoV= 1
 ScaDFX=  1.000000  1.000000  1.000000  1.000000
 FoFCou: FMM=F IPFlag=           0 FMFlag=      100000 FMFlg1=           1
         NFxFlg=           0 DoJE=T BraDBF=F KetDBF=T FulRan=T
         Omega=  0.000000  0.000000  1.000000  0.000000  0.000000 ICntrl=     500 IOpCl=  0
         NMat0=    1 NMatS0=    1 NMatT0=    0 NMatD0=    1 NMtDS0=    0 NMtDT0=    0
         I1Cent=           4 NGrid=           0.
 Petite list used in FoFCou.
 Initial guess orbital symmetries:
       Occupied  (A) (A) (A) (A) (A) (A) (A) (A) (A) (A) (A) (A)
                 (A) (A) (A) (A) (A) (A) (A) (A) (A) (A) (A) (A)
                 (A) (A) (A) (A) (A) (A) (A) (A) (A) (A) (A) (A)
                 (A) (A) (A) (A) (A) (A) (A) (A) (A) (A) (A) (A)
                 (A) (A) (A) (A) (A) (A) (A) (A) (A) (A) (A) (A)
                 (A) (A) (A) (A) (A) (A) (A) (A) (A) (A) (A) (A)
                 (A) (A) (A) (A) (A) (A) (A) (A) (A) (A) (A) (A)
                 (A) (A) (A) (A) (A) (A) (A) (A) (A) (A) (A) (A)
                 (A) (A) (A) (A) (A) (A) (A) (A) (A) (A) (A) (A)
       Virtual   (A) (A) (A) (A) (A) (A) (A) (A) (A) (A) (A) (A)
                 (A) (A) (A) (A) (A) (A) (A) (A) (A) (A) (A) (A)
                 (A) (A) (A) (A) (A) (A) (A) (A) (A) (A) (A) (A)
                 (A) (A) (A) (A) (A) (A) (A) (A) (A) (A) (A) (A)
                 (A) (A) (A) (A) (A) (A) (A) (A) (A) (A) (A) (A)
                 (A) (A) (A) (A) (A) (A) (A) (A) (A) (A) (A) (A)
                 (A) (A) (A) (A) (A) (A) (A) (A) (A) (A) (A) (A)
                 (A) (A) (A) (A) (A) (A) (A) (A) (A) (A) (A) (A)
                 (A) (A) (A) (A) (A) (A) (A) (A) (A) (A) (A) (A)
                 (A) (A) (A) (A) (A) (A) (A) (A) (A) (A) (A) (A)
                 (A) (A) (A) (A) (A) (A) (A) (A) (A) (A) (A) (A)
                 (A) (A) (A) (A) (A) (A) (A) (A) (A) (A) (A) (A)
                 (A) (A) (A) (A) (A) (A) (A) (A) (A) (A) (A) (A)
                 (A) (A) (A) (A) (A) (A) (A) (A) (A) (A) (A) (A)
                 (A) (A) (A) (A) (A) (A) (A) (A) (A) (A) (A) (A)
                 (A) (A) (A) (A) (A) (A) (A) (A) (A) (A) (A) (A)
                 (A) (A) (A) (A) (A) (A) (A) (A) (A) (A) (A) (A)
                 (A) (A) (A) (A) (A) (A) (A) (A) (A) (A) (A) (A)
                 (A) (A) (A) (A) (A) (A) (A) (A) (A) (A) (A) (A)
                 (A) (A) (A) (A) (A) (A) (A) (A) (A) (A) (A) (A)
                 (A) (A) (A) (A) (A) (A) (A) (A) (A) (A) (A) (A)
                 (A) (A) (A) (A) (A) (A) (A) (A) (A) (A) (A) (A)
                 (A) (A) (A) (A) (A) (A) (A) (A) (A) (A) (A) (A)
                 (A) (A) (A) (A) (A) (A) (A) (A) (A) (A) (A) (A)
                 (A) (A) (A) (A) (A) (A) (A) (A) (A) (A) (A) (A)
                 (A) (A) (A) (A) (A) (A) (A) (A) (A) (A) (A) (A)
                 (A) (A) (A) (A) (A) (A) (A) (A) (A) (A) (A) (A)
                 (A) (A) (A) (A) (A) (A) (A) (A) (A) (A) (A) (A)
                 (A) (A) (A) (A) (A) (A) (A) (A) (A) (A) (A) (A)
                 (A) (A) (A) (A) (A) (A) (A) (A) (A) (A) (A) (A)
                 (A) (A) (A) (A) (A) (A) (A) (A) (A) (A) (A) (A)
                 (A) (A) (A) (A) (A) (A) (A) (A) (A) (A) (A) (A)
 The electronic state of the initial guess is 1-A.
 Requested convergence on RMS density matrix=1.00D-08 within 128 cycles.
 Requested convergence on MAX density matrix=1.00D-06.
 Requested convergence on             energy=1.00D-06.
 No special actions if energy rises.
 Integral accuracy reduced to 1.0D-05 until final iterations.
 Initial convergence to 1.0D-05 achieved.  Increase integral accuracy.
 SCF Done:  E(RHF) =  -1295.62235601     A.U. after   14 cycles
             Convg  =    0.6412D-08             -V/T =  2.0012

 **********************************************************************

            Population analysis using the SCF density.

 **********************************************************************

 Orbital symmetries:
       Occupied  (A) (A) (A) (A) (A) (A) (A) (A) (A) (A) (A) (A)
                 (A) (A) (A) (A) (A) (A) (A) (A) (A) (A) (A) (A)
                 (A) (A) (A) (A) (A) (A) (A) (A) (A) (A) (A) (A)
                 (A) (A) (A) (A) (A) (A) (A) (A) (A) (A) (A) (A)
                 (A) (A) (A) (A) (A) (A) (A) (A) (A) (A) (A) (A)
                 (A) (A) (A) (A) (A) (A) (A) (A) (A) (A) (A) (A)
                 (A) (A) (A) (A) (A) (A) (A) (A) (A) (A) (A) (A)
                 (A) (A) (A) (A) (A) (A) (A) (A) (A) (A) (A) (A)
                 (A) (A) (A) (A) (A) (A) (A) (A) (A) (A) (A) (A)
       Virtual   (A) (A) (A) (A) (A) (A) (A) (A) (A) (A) (A) (A)
                 (A) (A) (A) (A) (A) (A) (A) (A) (A) (A) (A) (A)
                 (A) (A) (A) (A) (A) (A) (A) (A) (A) (A) (A) (A)
                 (A) (A) (A) (A) (A) (A) (A) (A) (A) (A) (A) (A)
                 (A) (A) (A) (A) (A) (A) (A) (A) (A) (A) (A) (A)
                 (A) (A) (A) (A) (A) (A) (A) (A) (A) (A) (A) (A)
                 (A) (A) (A) (A) (A) (A) (A) (A) (A) (A) (A) (A)
                 (A) (A) (A) (A) (A) (A) (A) (A) (A) (A) (A) (A)
                 (A) (A) (A) (A) (A) (A) (A) (A) (A) (A) (A) (A)
                 (A) (A) (A) (A) (A) (A) (A) (A) (A) (A) (A) (A)
                 (A) (A) (A) (A) (A) (A) (A) (A) (A) (A) (A) (A)
                 (A) (A) (A) (A) (A) (A) (A) (A) (A) (A) (A) (A)
                 (A) (A) (A) (A) (A) (A) (A) (A) (A) (A) (A) (A)
                 (A) (A) (A) (A) (A) (A) (A) (A) (A) (A) (A) (A)
                 (A) (A) (A) (A) (A) (A) (A) (A) (A) (A) (A) (A)
                 (A) (A) (A) (A) (A) (A) (A) (A) (A) (A) (A) (A)
                 (A) (A) (A) (A) (A) (A) (A) (A) (A) (A) (A) (A)
                 (A) (A) (A) (A) (A) (A) (A) (A) (A) (A) (A) (A)
                 (A) (A) (A) (A) (A) (A) (A) (A) (A) (A) (A) (A)
                 (A) (A) (A) (A) (A) (A) (A) (A) (A) (A) (A) (A)
                 (A) (A) (A) (A) (A) (A) (A) (A) (A) (A) (A) (A)
                 (A) (A) (A) (A) (A) (A) (A) (A) (A) (A) (A) (A)
                 (A) (A) (A) (A) (A) (A) (A) (A) (A) (A) (A) (A)
                 (A) (A) (A) (A) (A) (A) (A) (A) (A) (A) (A) (A)
                 (A) (A) (A) (A) (A) (A) (A) (A) (A) (A) (A) (A)
                 (A) (A) (A) (A) (A) (A) (A) (A) (A) (A) (A) (A)
                 (A) (A) (A) (A) (A) (A) (A) (A) (A) (A) (A) (A)
                 (A) (A) (A) (A) (A) (A) (A) (A) (A) (A) (A) (A)
                 (A) (A) (A) (A) (A) (A) (A) (A) (A) (A) (A) (A)
                 (A) (A) (A) (A) (A) (A) (A) (A) (A) (A) (A) (A)
                 (A) (A) (A) (A) (A) (A) (A) (A) (A) (A) (A) (A)
                 (A) (A) (A) (A) (A) (A) (A) (A) (A) (A) (A) (A)
 The electronic state is 1-A.
 Alpha  occ. eigenvalues --  -20.53582 -20.52383 -20.52158 -20.51832 -15.59543
 Alpha  occ. eigenvalues --  -15.58508 -15.57864 -15.57490 -11.35895 -11.34584
 Alpha  occ. eigenvalues --  -11.34220 -11.33839 -11.29008 -11.28944 -11.25768
 Alpha  occ. eigenvalues --  -11.24846 -11.24251 -11.23991 -11.23716 -11.22827
 Alpha  occ. eigenvalues --  -11.22815 -11.22792 -11.22727 -11.22299 -11.22118
 Alpha  occ. eigenvalues --  -11.22101 -11.21802 -11.20867  -1.40523  -1.39816
 Alpha  occ. eigenvalues --   -1.38687  -1.38546  -1.25377  -1.23909  -1.23218
 Alpha  occ. eigenvalues --   -1.22036  -1.10781  -1.09472  -1.07312  -1.04569
 Alpha  occ. eigenvalues --   -1.01310  -0.99448  -0.98976  -0.95700  -0.95478
 Alpha  occ. eigenvalues --   -0.95059  -0.91934  -0.87414  -0.85630  -0.82967
 Alpha  occ. eigenvalues --   -0.81153  -0.79940  -0.78627  -0.77371  -0.77139
 Alpha  occ. eigenvalues --   -0.73926  -0.71871  -0.71153  -0.69038  -0.68205
 Alpha  occ. eigenvalues --   -0.65902  -0.65519  -0.64827  -0.64329  -0.63661
 Alpha  occ. eigenvalues --   -0.62586  -0.62427  -0.61976  -0.61840  -0.61191
 Alpha  occ. eigenvalues --   -0.60904  -0.60162  -0.59264  -0.59231  -0.58964
 Alpha  occ. eigenvalues --   -0.58152  -0.57882  -0.56755  -0.56572  -0.56458
 Alpha  occ. eigenvalues --   -0.55767  -0.55240  -0.54951  -0.54546  -0.54218
 Alpha  occ. eigenvalues --   -0.53540  -0.52925  -0.52573  -0.52342  -0.51680
 Alpha  occ. eigenvalues --   -0.51006  -0.50745  -0.50159  -0.49372  -0.48734
 Alpha  occ. eigenvalues --   -0.48387  -0.47013  -0.46456  -0.45135  -0.42827
 Alpha  occ. eigenvalues --   -0.41964  -0.41904  -0.41411  -0.39340  -0.39247
 Alpha  occ. eigenvalues --   -0.38804  -0.38284  -0.34402
 Alpha virt. eigenvalues --    0.17358   0.18870   0.19230   0.20035   0.20121
 Alpha virt. eigenvalues --    0.21172   0.21502   0.22803   0.23486   0.24122
 Alpha virt. eigenvalues --    0.25086   0.25510   0.26144   0.26915   0.27126
 Alpha virt. eigenvalues --    0.28057   0.28213   0.28620   0.29180   0.29476
 Alpha virt. eigenvalues --    0.29625   0.29889   0.30767   0.30899   0.31371
 Alpha virt. eigenvalues --    0.32169   0.32339   0.32541   0.33046   0.33301
 Alpha virt. eigenvalues --    0.33482   0.33656   0.33980   0.34414   0.35000
 Alpha virt. eigenvalues --    0.35141   0.35599   0.36194   0.36668   0.36864
 Alpha virt. eigenvalues --    0.37600   0.38526   0.38878   0.39242   0.39945
 Alpha virt. eigenvalues --    0.40825   0.41610   0.41879   0.42936   0.43389
 Alpha virt. eigenvalues --    0.44465   0.44789   0.45141   0.45863   0.46465
 Alpha virt. eigenvalues --    0.48157   0.48642   0.49096   0.51092   0.51829
 Alpha virt. eigenvalues --    0.52912   0.55092   0.57338   0.59054   0.59276
 Alpha virt. eigenvalues --    0.60773   0.63269   0.63981   0.68720   0.69569
 Alpha virt. eigenvalues --    0.70551   0.70889   0.71790   0.72264   0.72988
 Alpha virt. eigenvalues --    0.73774   0.74574   0.74766   0.75650   0.75891
 Alpha virt. eigenvalues --    0.76188   0.77029   0.77737   0.77879   0.78051
 Alpha virt. eigenvalues --    0.79286   0.79849   0.80291   0.81045   0.81847
 Alpha virt. eigenvalues --    0.83143   0.83650   0.84301   0.85449   0.85737
 Alpha virt. eigenvalues --    0.86822   0.87892   0.89703   0.90109   0.90723
 Alpha virt. eigenvalues --    0.91746   0.92003   0.92257   0.93314   0.93652
 Alpha virt. eigenvalues --    0.94442   0.95670   0.96652   0.96932   0.97869
 Alpha virt. eigenvalues --    0.98280   0.98861   0.99664   1.00021   1.00765
 Alpha virt. eigenvalues --    1.01350   1.01856   1.02014   1.02886   1.03375
 Alpha virt. eigenvalues --    1.03731   1.04138   1.05182   1.06321   1.06527
 Alpha virt. eigenvalues --    1.07108   1.07900   1.08237   1.09917   1.10860
 Alpha virt. eigenvalues --    1.11422   1.12012   1.12629   1.13012   1.13747
 Alpha virt. eigenvalues --    1.14152   1.14294   1.14541   1.14775   1.15386
 Alpha virt. eigenvalues --    1.16030   1.16286   1.16700   1.17601   1.17672
 Alpha virt. eigenvalues --    1.17980   1.18299   1.18519   1.18584   1.18975
 Alpha virt. eigenvalues --    1.19635   1.20110   1.20436   1.21132   1.21256
 Alpha virt. eigenvalues --    1.21556   1.21899   1.22082   1.22192   1.22491
 Alpha virt. eigenvalues --    1.22877   1.23209   1.23979   1.24237   1.24377
 Alpha virt. eigenvalues --    1.25790   1.26733   1.27332   1.27961   1.28661
 Alpha virt. eigenvalues --    1.29342   1.30225   1.31240   1.31854   1.32154
 Alpha virt. eigenvalues --    1.32801   1.33965   1.34889   1.35623   1.36792
 Alpha virt. eigenvalues --    1.38427   1.38513   1.40387   1.41327   1.42692
 Alpha virt. eigenvalues --    1.44016   1.45178   1.45962   1.47801   1.48251
 Alpha virt. eigenvalues --    1.50803   1.51936   1.53050   1.54051   1.54956
 Alpha virt. eigenvalues --    1.56637   1.58571   1.59263   1.60469   1.61363
 Alpha virt. eigenvalues --    1.61875   1.63428   1.64275   1.67050   1.67697
 Alpha virt. eigenvalues --    1.68596   1.69790   1.72001   1.72032   1.72729
 Alpha virt. eigenvalues --    1.73644   1.74011   1.77073   1.78858   1.79392
 Alpha virt. eigenvalues --    1.79870   1.80346   1.83822   1.85405   1.88532
 Alpha virt. eigenvalues --    1.88940   1.90257   1.91776   1.93859   1.95035
 Alpha virt. eigenvalues --    1.96705   1.97478   1.98686   1.99909   2.01750
 Alpha virt. eigenvalues --    2.04304   2.05263   2.06118   2.06794   2.07893
 Alpha virt. eigenvalues --    2.09734   2.11197   2.11495   2.11686   2.12310
 Alpha virt. eigenvalues --    2.13033   2.13368   2.13891   2.14476   2.15894
 Alpha virt. eigenvalues --    2.16138   2.16875   2.18291   2.18905   2.19322
 Alpha virt. eigenvalues --    2.20180   2.20714   2.21707   2.21873   2.23268
 Alpha virt. eigenvalues --    2.24084   2.25046   2.25424   2.26040   2.27033
 Alpha virt. eigenvalues --    2.28155   2.28842   2.29606   2.30247   2.31169
 Alpha virt. eigenvalues --    2.32234   2.33178   2.33528   2.34529   2.34829
 Alpha virt. eigenvalues --    2.36539   2.36859   2.37348   2.38340   2.39090
 Alpha virt. eigenvalues --    2.39839   2.40788   2.41964   2.42545   2.44247
 Alpha virt. eigenvalues --    2.45279   2.46425   2.47409   2.50208   2.51064
 Alpha virt. eigenvalues --    2.51272   2.53651   2.54754   2.55412   2.56321
 Alpha virt. eigenvalues --    2.56818   2.57151   2.58113   2.59751   2.60686
 Alpha virt. eigenvalues --    2.61515   2.62420   2.63251   2.64393   2.65062
 Alpha virt. eigenvalues --    2.65348   2.66698   2.68819   2.70119   2.70608
 Alpha virt. eigenvalues --    2.71166   2.71632   2.73207   2.74492   2.75524
 Alpha virt. eigenvalues --    2.76273   2.77388   2.77936   2.78780   2.79317
 Alpha virt. eigenvalues --    2.81180   2.81899   2.83219   2.84494   2.84844
 Alpha virt. eigenvalues --    2.86037   2.88355   2.88760   2.95068   2.96954
 Alpha virt. eigenvalues --    2.97598   2.97746   2.98355   3.00410   3.01040
 Alpha virt. eigenvalues --    3.03352   3.04715   3.05194   3.06475   3.07869
 Alpha virt. eigenvalues --    3.10976   3.11370   3.12691   3.14026   3.15095
 Alpha virt. eigenvalues --    3.16910   3.18985   3.25959   3.29844   3.30060
 Alpha virt. eigenvalues --    3.33963   3.34582   3.35066   3.38862   3.40236
 Alpha virt. eigenvalues --    3.42224   3.43024   3.53321   3.55216   3.57175
 Alpha virt. eigenvalues --    3.60183   4.37904   4.40966   4.44749   4.46896
 Alpha virt. eigenvalues --    4.48785   4.51523   4.55196   4.57494   4.61463
 Alpha virt. eigenvalues --    4.63176   4.66236   4.67470   4.68575   4.69779
 Alpha virt. eigenvalues --    4.71491   4.76904   4.79059   4.82255   4.84628
 Alpha virt. eigenvalues --    4.87797   4.89327   4.92858   4.93623   4.97487
 Alpha virt. eigenvalues --    5.00914   5.11698   5.21928   5.23164
          Condensed to atoms (all electrons):
 Mulliken atomic charges:
              1
     1  C   -0.279797
     2  N   -0.783204
     3  C    0.821826
     4  O   -0.628962
     5  C    0.102273
     6  C   -0.472737
     7  C   -0.335016
     8  C   -0.309990
     9  C   -0.365044
    10  C   -0.177163
    11  C   -0.173498
    12  C   -0.345970
    13  C   -0.308456
    14  C   -0.329190
    15  C    0.090221
    16  C   -0.509907
    17  N   -0.786989
    18  C    0.767080
    19  C   -0.595750
    20  O   -0.614053
    21  C    0.820253
    22  O   -0.640731
    23  N   -0.806666
    24  C   -0.274037
    25  N   -0.842850
    26  C    0.744382
    27  C   -0.588920
    28  O   -0.592180
    29  H    0.186868
    30  H    0.197814
    31  H    0.163124
    32  H    0.392064
    33  H    0.197922
    34  H    0.143799
    35  H    0.212783
    36  H    0.161216
    37  H    0.184407
    38  H    0.162851
    39  H    0.179662
    40  H    0.210261
    41  H    0.169612
    42  H    0.176940
    43  H    0.166499
    44  H    0.173832
    45  H    0.160089
    46  H    0.152097
    47  H    0.191090
    48  H    0.176389
    49  H    0.183983
    50  H    0.185739
    51  H    0.148517
    52  H    0.226649
    53  H    0.390053
    54  H    0.211861
    55  H    0.208387
    56  H    0.177595
    57  H    0.396907
    58  H    0.164908
    59  H    0.192368
    60  H    0.187104
    61  H    0.383378
    62  H    0.218546
    63  H    0.178752
    64  H    0.201010
 Sum of Mulliken atomic charges =   0.00000
 Mulliken charges with hydrogens summed into heavy atoms:
              1
     1  C    0.268009
     2  N   -0.391139
     3  C    0.821826
     4  O   -0.628962
     5  C    0.102273
     6  C    0.081767
     7  C    0.010606
     8  C    0.032523
     9  C    0.014829
    10  C   -0.000223
    11  C   -0.006999
    12  C   -0.012050
    13  C    0.034732
    14  C    0.031183
    15  C    0.090221
    16  C    0.050998
    17  N   -0.396935
    18  C    0.767080
    19  C    0.002092
    20  O   -0.614053
    21  C    0.820253
    22  O   -0.640731
    23  N   -0.409759
    24  C    0.270343
    25  N   -0.459471
    26  C    0.744382
    27  C    0.009387
    28  O   -0.592180
 Sum of Mulliken charges with hydrogens summed into heavy atoms =   0.00000
 Electronic spatial extent (au):  <R**2>=          18662.5576
 Charge=              0.0000 electrons
 Dipole moment (field-independent basis, Debye):
    X=              2.3971    Y=              1.4556    Z=             -0.9875  Tot=              2.9731
 Quadrupole moment (field-independent basis, Debye-Ang):
   XX=           -228.0588   YY=           -164.7648   ZZ=           -158.0277
   XY=            -31.3582   XZ=              9.7517   YZ=              8.7480
 Traceless Quadrupole moment (field-independent basis, Debye-Ang):
   XX=            -44.4417   YY=             18.8523   ZZ=             25.5894
   XY=            -31.3582   XZ=              9.7517   YZ=              8.7480
 Octapole moment (field-independent basis, Debye-Ang**2):
  XXX=            188.8192  YYY=             67.7618  ZZZ=            -14.9700  XYY=            -40.3500
  XXY=            -33.6895  XXZ=            -95.9361  XZZ=             20.8068  YZZ=              9.4059
  YYZ=             -7.2963  XYZ=             10.7267
 Hexadecapole moment (field-independent basis, Debye-Ang**3):
 XXXX=         -22915.2988 YYYY=          -3100.2410 ZZZZ=          -1730.6406 XXXY=           -787.8479
 XXXZ=           -254.7486 YYYX=           -115.4312 YYYZ=             15.6215 ZZZX=             57.5285
 ZZZY=             14.9128 XXYY=          -3747.5503 XXZZ=          -3210.7052 YYZZ=           -795.1290
 XXYZ=            158.0951 YYXZ=            147.2752 ZZXY=             16.6061
 N-N= 2.736764987910D+03 E-N=-8.505161544104D+03  KE= 1.294005471616D+03
 1\1\GINC-MOSURA\SP\RHF\6-31G(d)\C20H36N4O4\MARIE\05-Dec-2019\0\\#SP HF
 /6-31G* Geom=(ModRedundant)\\paramfit run\\0,1\C,0,0.,0.,0.\N,0,1.4481
 87,0.,0.\C,0,2.1232,0.47592,1.072365\O,0,1.590179,0.696732,2.124447\C,
 0,3.650505,0.594143,0.921539\C,0,4.198902,1.549248,1.986845\C,0,4.3077
 51,-0.809116,1.023981\C,0,4.133566,-1.622781,2.319066\C,0,2.832729,-2.
 433298,2.484965\C,0,2.579342,-3.423586,1.372579\C,0,2.834093,-4.721989
 ,1.375535\C,0,2.776576,-5.671576,0.203046\C,0,4.151922,-6.040295,-0.38
 1791\C,0,5.058109,-6.746627,0.635477\C,0,6.402724,-7.331065,0.130415\C
 ,0,7.138173,-7.921375,1.34454\N,0,6.11738,-8.391429,-0.826528\C,0,7.11
 1569,-8.990463,-1.544722\C,0,6.643489,-9.780479,-2.745381\O,0,8.271338
 ,-8.901478,-1.251194\C,0,7.180069,-6.214065,-0.602232\O,0,6.94457,-5.9
 67486,-1.754477\N,0,8.043359,-5.475166,0.127657\C,0,8.84118,-4.446365,
 -0.507365\N,0,3.997412,1.070275,-0.425452\C,0,3.587019,2.267163,-0.934
 086\C,0,4.328148,2.727659,-2.172145\O,0,2.697134,2.905425,-0.447397\H,
 0,-0.403259,1.006147,0.\H,0,-0.36496,-0.516002,0.875939\H,0,-0.345658,
 -0.522086,-0.883346\H,0,1.904244,0.070913,-0.879357\H,0,3.932135,1.221
 76,2.980082\H,0,5.28092,1.595925,1.9075\H,0,3.792711,2.540594,1.848395
 \H,0,5.374584,-0.64325,0.891407\H,0,3.984642,-1.403324,0.174983\H,0,4.
 961565,-2.324757,2.354635\H,0,4.250121,-0.975721,3.182259\H,0,1.985724
 ,-1.764045,2.562723\H,0,2.895638,-2.94811,3.437249\H,0,2.135502,-3.009
 181,0.481856\H,0,3.120587,-5.166053,2.316008\H,0,2.171785,-5.251615,-0
 .591514\H,0,2.270376,-6.582529,0.520094\H,0,3.983382,-6.669411,-1.2513
 79\H,0,4.634981,-5.145214,-0.750998\H,0,4.514428,-7.570912,1.092096\H,
 0,5.29261,-6.05045,1.432155\H,0,6.56461,-8.759003,1.723996\H,0,7.22045
 6,-7.194387,2.145851\H,0,8.121856,-8.279111,1.079719\H,0,5.250428,-8.3
 08426,-1.306336\H,0,7.405062,-10.495736,-3.016442\H,0,6.49812,-9.09521
 1,-3.575081\H,0,5.706892,-10.29378,-2.556462\H,0,8.382778,-5.851033,0.
 981372\H,0,9.369607,-3.896062,0.260001\H,0,8.197999,-3.767682,-1.04804
 5\H,0,9.559424,-4.866405,-1.204105\H,0,4.82812,0.684785,-0.816437\H,0,
 3.710173,3.434604,-2.706288\H,0,4.588171,1.902533,-2.825678\H,0,5.2447
 71,3.226201,-1.873716\\Version=EM64L-G09RevA.02\State=1-A\HF=-1295.622
 356\RMSD=6.412e-09\Dipole=0.6809911,-0.6415712,-0.7020634\Quadrupole=-
 1.477364,-7.1450966,8.6224606,29.5814622,16.3075246,-16.0839054\PG=C01
  [X(C20H36N4O4)]\\@


 OUR LITTLE SYSTEMS HAVE THEIR DAY,    
   THEY HAVE THEIR DAY AND CEASE TO BE.
   THEY ARE BUT BROKEN LIGHTS OF THEE, 
 AND THOU, OH LORD, ART MORE THAN THEY.
          -------------------          
 LET KNOWLEDGE GROW FROM MORE TO MORE, 
   BUT MORE OF REVERENCE IN US DWELL.  
   THAT MIND AND SOUL, ACCORDING WELL, 
 MAY MAKE ONE MUSIC AS BEFORE.....     
          -------------------          
                    LORD TENNYSON      
 Job cpu time:  0 days  0 hours  5 minutes 37.8 seconds.
 File lengths (MBytes):  RWF=    132 Int=      0 D2E=      0 Chk=     10 Scr=      1
 Normal termination of Gaussian 09 at Thu Dec  5 17:13:23 2019.
