 Entering Gaussian System, Link 0=g09
 Input=CHI5_150.gau
 Output=CHI5_150.log
 Initial command:
 /home/marie/Utilities//g09/l1.exe /tmp/g09/Gau-12593.inp -scrdir=/tmp/g09/
 Entering Link 1 = /home/marie/Utilities//g09/l1.exe PID=     12595.
  
 Copyright (c) 1988,1990,1992,1993,1995,1998,2003,2009, Gaussian, Inc.
                  All Rights Reserved.
  
 This is part of the Gaussian(R) 09 program.  It is based on
 the Gaussian(R) 03 system (copyright 2003, Gaussian, Inc.),
 the Gaussian(R) 98 system (copyright 1998, Gaussian, Inc.),
 the Gaussian(R) 94 system (copyright 1995, Gaussian, Inc.),
 the Gaussian 92(TM) system (copyright 1992, Gaussian, Inc.),
 the Gaussian 90(TM) system (copyright 1990, Gaussian, Inc.),
 the Gaussian 88(TM) system (copyright 1988, Gaussian, Inc.),
 the Gaussian 86(TM) system (copyright 1986, Carnegie Mellon
 University), and the Gaussian 82(TM) system (copyright 1983,
 Carnegie Mellon University). Gaussian is a federally registered
 trademark of Gaussian, Inc.
  
 This software contains proprietary and confidential information,
 including trade secrets, belonging to Gaussian, Inc.
  
 This software is provided under written license and may be
 used, copied, transmitted, or stored only in accord with that
 written license.
  
 The following legend is applicable only to US Government
 contracts under FAR:
  
                    RESTRICTED RIGHTS LEGEND
  
 Use, reproduction and disclosure by the US Government is
 subject to restrictions as set forth in subparagraphs (a)
 and (c) of the Commercial Computer Software - Restricted
 Rights clause in FAR 52.227-19.
  
 Gaussian, Inc.
 340 Quinnipiac St., Bldg. 40, Wallingford CT 06492
  
  
 ---------------------------------------------------------------
 Warning -- This program may not be used in any manner that
 competes with the business of Gaussian, Inc. or will provide
 assistance to any competitor of Gaussian, Inc.  The licensee
 of this program is prohibited from giving any competitor of
 Gaussian, Inc. access to this program.  By using this program,
 the user acknowledges that Gaussian, Inc. is engaged in the
 business of creating and licensing software in the field of
 computational chemistry and represents and warrants to the
 licensee that it is not a competitor of Gaussian, Inc. and that
 it will not use this program in any manner prohibited above.
 ---------------------------------------------------------------
  

 Cite this work as:
 Gaussian 09, Revision A.02,
 M. J. Frisch, G. W. Trucks, H. B. Schlegel, G. E. Scuseria, 
 M. A. Robb, J. R. Cheeseman, G. Scalmani, V. Barone, B. Mennucci, 
 G. A. Petersson, H. Nakatsuji, M. Caricato, X. Li, H. P. Hratchian, 
 A. F. Izmaylov, J. Bloino, G. Zheng, J. L. Sonnenberg, M. Hada, 
 M. Ehara, K. Toyota, R. Fukuda, J. Hasegawa, M. Ishida, T. Nakajima, 
 Y. Honda, O. Kitao, H. Nakai, T. Vreven, J. A. Montgomery, Jr., 
 J. E. Peralta, F. Ogliaro, M. Bearpark, J. J. Heyd, E. Brothers, 
 K. N. Kudin, V. N. Staroverov, R. Kobayashi, J. Normand, 
 K. Raghavachari, A. Rendell, J. C. Burant, S. S. Iyengar, J. Tomasi, 
 M. Cossi, N. Rega, J. M. Millam, M. Klene, J. E. Knox, J. B. Cross, 
 V. Bakken, C. Adamo, J. Jaramillo, R. Gomperts, R. E. Stratmann, 
 O. Yazyev, A. J. Austin, R. Cammi, C. Pomelli, J. W. Ochterski, 
 R. L. Martin, K. Morokuma, V. G. Zakrzewski, G. A. Voth, 
 P. Salvador, J. J. Dannenberg, S. Dapprich, A. D. Daniels, 
 O. Farkas, J. B. Foresman, J. V. Ortiz, J. Cioslowski, 
 and D. J. Fox, Gaussian, Inc., Wallingford CT, 2009.
 
 ******************************************
 Gaussian 09:  EM64L-G09RevA.02 11-Jun-2009
                 5-Dec-2019 
 ******************************************
 %chk=CHI5_150
 %NoSave
 ---------------------------------
 #SP HF/6-31G* Geom=(ModRedundant)
 ---------------------------------
 1/18=120,38=1/1;
 2/12=2,17=6,18=5,40=1/2;
 3/5=1,6=6,7=1,11=9,16=1,25=1,30=1/1,2,3;
 4//1;
 5/5=2,38=5/2;
 6/7=2,8=2,9=2,10=2,28=1/1;
 99/5=1,9=1/99;
 ------------
 paramfit run
 ------------
 Symbolic Z-matrix:
 Charge =  0 Multiplicity = 1
 C-CT--0.3208          0.        0.        0. 
 N-N--0.5622           1.44819   0.        0. 
 C-C-0.8053            2.1232    0.47592   1.07237 
 O-O--0.6151           1.59018   0.69673   2.12445 
 C-CX-0.0839           3.65051   0.59414   0.92154 
 C-CU--0.3230          4.1989    1.54925   1.98685 
 C-CU--0.0657          4.30775  -0.80912   1.02398 
 C-CU--0.0109          4.13357  -1.62278   2.31907 
 C-CU-0.0816           2.83273  -2.4333    2.48497 
 C-CM--0.2354          2.57934  -3.42359   1.37258 
 C-CM--0.2653          2.83409  -4.72199   1.37554 
 C-CU-0.1214           2.09047  -5.80522   0.63163 
 C-CU--0.0354          2.80279  -6.30558  -0.63793 
 C-CU--0.0984          4.17679  -6.92177  -0.34238 
 C-CU-0.1300           4.92486  -7.62475  -1.50464 
 C-CU--0.3561          6.28581  -8.09387  -0.96502 
 N-N--0.7186           4.14545  -8.78083  -1.92598 
 C-C-0.8537            4.4882   -9.50855  -3.0287 
 C-CT--0.3868          3.40191  -10.41833  -3.55509 
 O-O--0.6323           5.56807  -9.43709  -3.54632 
 C-C-0.7903            5.01712  -6.64321  -2.69493 
 O-O--0.6136           4.09722  -6.53003  -3.45973 
 N-N--0.5650           6.11478  -5.86016  -2.77206 
 C-CT--0.3231          6.28826  -4.95495  -3.88952 
 N-N--0.7191           3.99741   1.07028  -0.42545 
 C-C-0.8539            3.58702   2.26716  -0.93409 
 C-CT--0.3903          4.32815   2.72766  -2.17214 
 O-O--0.6290           2.69713   2.90543  -0.4474 
 H-H1-0.1459          -0.40326   1.00615   0. 
 H-H1-0.1459          -0.36496  -0.516     0.87594 
 H-H1-0.1459          -0.34566  -0.52209  -0.88335 
 H-H-0.3572            1.90424   0.07091  -0.87936 
 H-HC-0.0997           3.93214   1.22176   2.98008 
 H-HC-0.0997           5.28092   1.59593   1.9075 
 H-HC-0.0997           3.79271   2.54059   1.8484 
 H-HC-0.0347           5.37458  -0.64325   0.89141 
 H-HC-0.0347           3.98464  -1.40332   0.17498 
 H-HC-0.0243           4.96157  -2.32476   2.35464 
 H-HC-0.0243           4.25012  -0.97572   3.18226 
 H-HC-0.0171           1.98572  -1.76405   2.56272 
 H-HC-0.0171           2.89564  -2.94811   3.43725 
 H-HA-0.1313           2.1355   -3.00918   0.48186 
 H-HA-0.1359           3.66834  -5.05937   1.97049 
 H-HC-0.0092           1.10271  -5.45922   0.35219 
 H-HC-0.0092           1.93727  -6.64609   1.30695 
 H-HC-0.0318           2.15054  -7.02872  -1.11961 
 H-HC-0.0318           2.90583  -5.48581  -1.33664 
 H-HC-0.0435           4.0789   -7.65782   0.45273 
 H-HC-0.0435           4.83128  -6.14415   0.03351 
 H-HC-0.1066           6.11667  -8.85129  -0.20853 
 H-HC-0.1066           6.82398  -7.27819  -0.49342 
 H-HC-0.1066           6.89612  -8.52603  -1.7438 
 H-H-0.3529            3.16756  -8.71812  -1.7571 
 H-HC-0.1047           3.8515   -11.19555  -4.15414 
 H-HC-0.1047           2.73656  -9.83463  -4.18416 
 H-HC-0.1047           2.81745  -10.86115  -2.75591 
 H-H-0.3615            6.93238  -6.14304  -2.28543 
 H-H1-0.1469           7.15821  -4.33897  -3.70333 
 H-H1-0.1469           5.41986  -4.31944  -3.98242 
 H-H1-0.1469           6.42312  -5.49     -4.82402 
 H-H-0.3570            4.82812   0.68479  -0.81644 
 H-HC-0.1060           3.71017   3.4346   -2.70629 
 H-HC-0.1060           4.58817   1.90253  -2.82568 
 H-HC-0.1060           5.24477   3.2262   -1.87372 
 
 The following ModRedundant input section has been read:
 D    *   10   11    * F                                                       
 Stoichiometry    C20H36N4O4
 Framework group  C1[X(C20H36N4O4)]
 Deg. of freedom   186
 Full point group                 C1      NOp   1
 Largest Abelian subgroup         C1      NOp   1
 Largest concise Abelian subgroup C1      NOp   1
                         Standard orientation:                         
 ---------------------------------------------------------------------
 Center     Atomic      Atomic             Coordinates (Angstroms)
 Number     Number       Type             X           Y           Z
 ---------------------------------------------------------------------
      1          6    20001001        4.101260   -1.260478    2.809630
      2          7    20001014        3.848547   -0.494689    1.606738
      3          6    20001002        4.494577   -0.807540    0.459184
      4          8    20001024        5.105798   -1.830807    0.321054
      5          6    90000001        4.294548    0.157705   -0.723050
      6          6    90000002        5.410685   -0.052507   -1.751589
      7          6    90000002        2.892042   -0.054891   -1.355017
      8          6    90000002        2.540750   -1.431408   -1.947832
      9          6    90000002        2.055442   -2.525700   -0.976422
     10          6    20001004        0.840870   -2.134978   -0.167454
     11          6    20001004       -0.422298   -2.447239   -0.407571
     12          6    90000002       -1.529766   -2.633739    0.601630
     13          6    90000002       -2.499107   -1.442506    0.706062
     14          6    90000002       -3.230346   -1.156505   -0.612426
     15          6    90000002       -4.364541   -0.099087   -0.601583
     16          6    90000002       -4.883263    0.040848   -2.041999
     17          7    20001014       -5.438905   -0.579962    0.256339
     18          6    20001002       -6.508024    0.208414    0.570197
     19          6    20001001       -7.328515   -0.268802    1.746575
     20          8    20001024       -6.782251    1.205887   -0.037248
     21          6    20001002       -3.810307    1.210219    0.004443
     22          8    20001024       -3.769405    1.356480    1.196443
     23          7    20001014       -3.289125    2.118733   -0.848172
     24          6    20001001       -2.799253    3.388285   -0.351718
     25          7    20001014        4.283322    1.550267   -0.251802
     26          6    20001002        5.328914    2.138163    0.396881
     27          6    20001001        5.266388    3.649236    0.479741
     28          8    20001024        6.227493    1.508234    0.878424
     29          1    20001035        5.116701   -1.129134    3.165407
     30          1    20001035        3.939031   -2.310429    2.614672
     31          1    20001035        3.410232   -0.936068    3.577478
     32          1    20001029        3.575798    0.453653    1.718719
     33          1    20001034        5.443043   -1.077064   -2.089477
     34          1    20001034        5.242273    0.597259   -2.605216
     35          1    20001034        6.371835    0.179737   -1.316641
     36          1    20001034        2.822510    0.669002   -2.163944
     37          1    20001034        2.139482    0.230068   -0.626503
     38          1    20001034        1.747405   -1.261604   -2.669905
     39          1    20001034        3.383191   -1.818515   -2.511583
     40          1    20001034        2.854845   -2.804770   -0.302302
     41          1    20001034        1.842220   -3.408278   -1.569234
     42          1    20001033        1.044439   -1.536028    0.705433
     43          1    20001033       -0.709020   -2.583672   -1.438560
     44          1    20001034       -1.114958   -2.820550    1.584739
     45          1    20001034       -2.093369   -3.527172    0.335689
     46          1    20001034       -3.206822   -1.661010    1.500901
     47          1    20001034       -1.953486   -0.564659    1.026240
     48          1    20001034       -3.669749   -2.077813   -0.988790
     49          1    20001034       -2.503095   -0.836006   -1.349131
     50          1    20001034       -5.341712   -0.895479   -2.338134
     51          1    20001034       -4.071687    0.238539   -2.734562
     52          1    20001034       -5.625755    0.820357   -2.124523
     53          1    20001029       -5.159465   -1.206730    0.975914
     54          1    20001034       -8.313975    0.167975    1.690398
     55          1    20001034       -6.849975    0.067800    2.661355
     56          1    20001034       -7.406378   -1.350153    1.778170
     57          1    20001029       -3.553749    2.076277   -1.803933
     58          1    20001035       -2.317461    3.914672   -1.165176
     59          1    20001035       -2.078222    3.218876    0.434438
     60          1    20001035       -3.601416    4.002076    0.045206
     61          1    20001029        3.660769    2.161150   -0.732216
     62          1    20001034        5.880465    3.979379    1.304901
     63          1    20001034        4.252912    4.011671    0.610347
     64          1    20001034        5.662874    4.072923   -0.437369
 ---------------------------------------------------------------------
 Rotational constants (GHZ):      0.2946454      0.0607384      0.0564324
 Standard basis: 6-31G(d) (6D, 7F)
 There are   492 symmetry adapted basis functions of A   symmetry.
 Integral buffers will be    131072 words long.
 Raffenetti 1 integral format.
 Two-electron integral symmetry is turned on.
   492 basis functions,   928 primitive gaussians,   492 cartesian basis functions
   108 alpha electrons      108 beta electrons
       nuclear repulsion energy      2722.6262788102 Hartrees.
 NAtoms=   64 NActive=   64 NUniq=   64 SFac= 7.50D-01 NAtFMM=   80 NAOKFM=F Big=T
 One-electron integrals computed using PRISM.
 NBasis=   492 RedAO= T  NBF=   492
 NBsUse=   492 1.00D-06 NBFU=   492
 Harris functional with IExCor=  205 diagonalized for initial guess.
 ExpMin= 1.61D-01 ExpMax= 5.48D+03 ExpMxC= 8.25D+02 IAcc=1 IRadAn=         1 AccDes= 0.00D+00
 HarFok:  IExCor=  205 AccDes= 0.00D+00 IRadAn=         1 IDoV= 1
 ScaDFX=  1.000000  1.000000  1.000000  1.000000
 FoFCou: FMM=F IPFlag=           0 FMFlag=      100000 FMFlg1=           1
         NFxFlg=           0 DoJE=T BraDBF=F KetDBF=T FulRan=T
         Omega=  0.000000  0.000000  1.000000  0.000000  0.000000 ICntrl=     500 IOpCl=  0
         NMat0=    1 NMatS0=    1 NMatT0=    0 NMatD0=    1 NMtDS0=    0 NMtDT0=    0
         I1Cent=           4 NGrid=           0.
 Petite list used in FoFCou.
 Initial guess orbital symmetries:
       Occupied  (A) (A) (A) (A) (A) (A) (A) (A) (A) (A) (A) (A)
                 (A) (A) (A) (A) (A) (A) (A) (A) (A) (A) (A) (A)
                 (A) (A) (A) (A) (A) (A) (A) (A) (A) (A) (A) (A)
                 (A) (A) (A) (A) (A) (A) (A) (A) (A) (A) (A) (A)
                 (A) (A) (A) (A) (A) (A) (A) (A) (A) (A) (A) (A)
                 (A) (A) (A) (A) (A) (A) (A) (A) (A) (A) (A) (A)
                 (A) (A) (A) (A) (A) (A) (A) (A) (A) (A) (A) (A)
                 (A) (A) (A) (A) (A) (A) (A) (A) (A) (A) (A) (A)
                 (A) (A) (A) (A) (A) (A) (A) (A) (A) (A) (A) (A)
       Virtual   (A) (A) (A) (A) (A) (A) (A) (A) (A) (A) (A) (A)
                 (A) (A) (A) (A) (A) (A) (A) (A) (A) (A) (A) (A)
                 (A) (A) (A) (A) (A) (A) (A) (A) (A) (A) (A) (A)
                 (A) (A) (A) (A) (A) (A) (A) (A) (A) (A) (A) (A)
                 (A) (A) (A) (A) (A) (A) (A) (A) (A) (A) (A) (A)
                 (A) (A) (A) (A) (A) (A) (A) (A) (A) (A) (A) (A)
                 (A) (A) (A) (A) (A) (A) (A) (A) (A) (A) (A) (A)
                 (A) (A) (A) (A) (A) (A) (A) (A) (A) (A) (A) (A)
                 (A) (A) (A) (A) (A) (A) (A) (A) (A) (A) (A) (A)
                 (A) (A) (A) (A) (A) (A) (A) (A) (A) (A) (A) (A)
                 (A) (A) (A) (A) (A) (A) (A) (A) (A) (A) (A) (A)
                 (A) (A) (A) (A) (A) (A) (A) (A) (A) (A) (A) (A)
                 (A) (A) (A) (A) (A) (A) (A) (A) (A) (A) (A) (A)
                 (A) (A) (A) (A) (A) (A) (A) (A) (A) (A) (A) (A)
                 (A) (A) (A) (A) (A) (A) (A) (A) (A) (A) (A) (A)
                 (A) (A) (A) (A) (A) (A) (A) (A) (A) (A) (A) (A)
                 (A) (A) (A) (A) (A) (A) (A) (A) (A) (A) (A) (A)
                 (A) (A) (A) (A) (A) (A) (A) (A) (A) (A) (A) (A)
                 (A) (A) (A) (A) (A) (A) (A) (A) (A) (A) (A) (A)
                 (A) (A) (A) (A) (A) (A) (A) (A) (A) (A) (A) (A)
                 (A) (A) (A) (A) (A) (A) (A) (A) (A) (A) (A) (A)
                 (A) (A) (A) (A) (A) (A) (A) (A) (A) (A) (A) (A)
                 (A) (A) (A) (A) (A) (A) (A) (A) (A) (A) (A) (A)
                 (A) (A) (A) (A) (A) (A) (A) (A) (A) (A) (A) (A)
                 (A) (A) (A) (A) (A) (A) (A) (A) (A) (A) (A) (A)
                 (A) (A) (A) (A) (A) (A) (A) (A) (A) (A) (A) (A)
                 (A) (A) (A) (A) (A) (A) (A) (A) (A) (A) (A) (A)
                 (A) (A) (A) (A) (A) (A) (A) (A) (A) (A) (A) (A)
                 (A) (A) (A) (A) (A) (A) (A) (A) (A) (A) (A) (A)
                 (A) (A) (A) (A) (A) (A) (A) (A) (A) (A) (A) (A)
                 (A) (A) (A) (A) (A) (A) (A) (A) (A) (A) (A) (A)
                 (A) (A) (A) (A) (A) (A) (A) (A) (A) (A) (A) (A)
 The electronic state of the initial guess is 1-A.
 Requested convergence on RMS density matrix=1.00D-08 within 128 cycles.
 Requested convergence on MAX density matrix=1.00D-06.
 Requested convergence on             energy=1.00D-06.
 No special actions if energy rises.
 Integral accuracy reduced to 1.0D-05 until final iterations.
 Initial convergence to 1.0D-05 achieved.  Increase integral accuracy.
 SCF Done:  E(RHF) =  -1295.60176243     A.U. after   14 cycles
             Convg  =    0.6314D-08             -V/T =  2.0012

 **********************************************************************

            Population analysis using the SCF density.

 **********************************************************************

 Orbital symmetries:
       Occupied  (A) (A) (A) (A) (A) (A) (A) (A) (A) (A) (A) (A)
                 (A) (A) (A) (A) (A) (A) (A) (A) (A) (A) (A) (A)
                 (A) (A) (A) (A) (A) (A) (A) (A) (A) (A) (A) (A)
                 (A) (A) (A) (A) (A) (A) (A) (A) (A) (A) (A) (A)
                 (A) (A) (A) (A) (A) (A) (A) (A) (A) (A) (A) (A)
                 (A) (A) (A) (A) (A) (A) (A) (A) (A) (A) (A) (A)
                 (A) (A) (A) (A) (A) (A) (A) (A) (A) (A) (A) (A)
                 (A) (A) (A) (A) (A) (A) (A) (A) (A) (A) (A) (A)
                 (A) (A) (A) (A) (A) (A) (A) (A) (A) (A) (A) (A)
       Virtual   (A) (A) (A) (A) (A) (A) (A) (A) (A) (A) (A) (A)
                 (A) (A) (A) (A) (A) (A) (A) (A) (A) (A) (A) (A)
                 (A) (A) (A) (A) (A) (A) (A) (A) (A) (A) (A) (A)
                 (A) (A) (A) (A) (A) (A) (A) (A) (A) (A) (A) (A)
                 (A) (A) (A) (A) (A) (A) (A) (A) (A) (A) (A) (A)
                 (A) (A) (A) (A) (A) (A) (A) (A) (A) (A) (A) (A)
                 (A) (A) (A) (A) (A) (A) (A) (A) (A) (A) (A) (A)
                 (A) (A) (A) (A) (A) (A) (A) (A) (A) (A) (A) (A)
                 (A) (A) (A) (A) (A) (A) (A) (A) (A) (A) (A) (A)
                 (A) (A) (A) (A) (A) (A) (A) (A) (A) (A) (A) (A)
                 (A) (A) (A) (A) (A) (A) (A) (A) (A) (A) (A) (A)
                 (A) (A) (A) (A) (A) (A) (A) (A) (A) (A) (A) (A)
                 (A) (A) (A) (A) (A) (A) (A) (A) (A) (A) (A) (A)
                 (A) (A) (A) (A) (A) (A) (A) (A) (A) (A) (A) (A)
                 (A) (A) (A) (A) (A) (A) (A) (A) (A) (A) (A) (A)
                 (A) (A) (A) (A) (A) (A) (A) (A) (A) (A) (A) (A)
                 (A) (A) (A) (A) (A) (A) (A) (A) (A) (A) (A) (A)
                 (A) (A) (A) (A) (A) (A) (A) (A) (A) (A) (A) (A)
                 (A) (A) (A) (A) (A) (A) (A) (A) (A) (A) (A) (A)
                 (A) (A) (A) (A) (A) (A) (A) (A) (A) (A) (A) (A)
                 (A) (A) (A) (A) (A) (A) (A) (A) (A) (A) (A) (A)
                 (A) (A) (A) (A) (A) (A) (A) (A) (A) (A) (A) (A)
                 (A) (A) (A) (A) (A) (A) (A) (A) (A) (A) (A) (A)
                 (A) (A) (A) (A) (A) (A) (A) (A) (A) (A) (A) (A)
                 (A) (A) (A) (A) (A) (A) (A) (A) (A) (A) (A) (A)
                 (A) (A) (A) (A) (A) (A) (A) (A) (A) (A) (A) (A)
                 (A) (A) (A) (A) (A) (A) (A) (A) (A) (A) (A) (A)
                 (A) (A) (A) (A) (A) (A) (A) (A) (A) (A) (A) (A)
                 (A) (A) (A) (A) (A) (A) (A) (A) (A) (A) (A) (A)
                 (A) (A) (A) (A) (A) (A) (A) (A) (A) (A) (A) (A)
                 (A) (A) (A) (A) (A) (A) (A) (A) (A) (A) (A) (A)
                 (A) (A) (A) (A) (A) (A) (A) (A) (A) (A) (A) (A)
 The electronic state is 1-A.
 Alpha  occ. eigenvalues --  -20.53633 -20.52341 -20.52115 -20.51861 -15.59605
 Alpha  occ. eigenvalues --  -15.58505 -15.57814 -15.57496 -11.35952 -11.34540
 Alpha  occ. eigenvalues --  -11.34185 -11.33868 -11.29049 -11.28917 -11.25781
 Alpha  occ. eigenvalues --  -11.24818 -11.24328 -11.24054 -11.23698 -11.22758
 Alpha  occ. eigenvalues --  -11.22736 -11.22635 -11.22464 -11.22206 -11.22129
 Alpha  occ. eigenvalues --  -11.22005 -11.21804 -11.20884  -1.40572  -1.39774
 Alpha  occ. eigenvalues --   -1.38717  -1.38504  -1.25430  -1.23864  -1.23210
 Alpha  occ. eigenvalues --   -1.22046  -1.10712  -1.09453  -1.07289  -1.04538
 Alpha  occ. eigenvalues --   -1.01295  -0.99440  -0.98952  -0.95691  -0.95471
 Alpha  occ. eigenvalues --   -0.95050  -0.91928  -0.87399  -0.85658  -0.82959
 Alpha  occ. eigenvalues --   -0.81212  -0.79908  -0.78699  -0.77347  -0.77152
 Alpha  occ. eigenvalues --   -0.73484  -0.71824  -0.71200  -0.69082  -0.68173
 Alpha  occ. eigenvalues --   -0.65979  -0.65489  -0.64842  -0.64311  -0.63758
 Alpha  occ. eigenvalues --   -0.62659  -0.62489  -0.61955  -0.61819  -0.61224
 Alpha  occ. eigenvalues --   -0.60854  -0.60112  -0.59298  -0.59164  -0.58961
 Alpha  occ. eigenvalues --   -0.58155  -0.57861  -0.56826  -0.56663  -0.56353
 Alpha  occ. eigenvalues --   -0.55711  -0.55206  -0.54784  -0.54543  -0.54226
 Alpha  occ. eigenvalues --   -0.53594  -0.52821  -0.52482  -0.52311  -0.51820
 Alpha  occ. eigenvalues --   -0.51041  -0.50846  -0.50123  -0.49493  -0.48580
 Alpha  occ. eigenvalues --   -0.48346  -0.47111  -0.46460  -0.45758  -0.42864
 Alpha  occ. eigenvalues --   -0.41945  -0.41919  -0.41371  -0.39311  -0.39286
 Alpha  occ. eigenvalues --   -0.38782  -0.38294  -0.32511
 Alpha virt. eigenvalues --    0.15512   0.18813   0.19285   0.19987   0.20137
 Alpha virt. eigenvalues --    0.21232   0.21425   0.22800   0.23703   0.23999
 Alpha virt. eigenvalues --    0.25331   0.25942   0.26074   0.26903   0.27581
 Alpha virt. eigenvalues --    0.27868   0.28473   0.28744   0.28982   0.29520
 Alpha virt. eigenvalues --    0.29728   0.30028   0.30886   0.30934   0.31601
 Alpha virt. eigenvalues --    0.31943   0.32237   0.32566   0.32611   0.33148
 Alpha virt. eigenvalues --    0.33612   0.33703   0.33801   0.34863   0.34966
 Alpha virt. eigenvalues --    0.35259   0.35445   0.35716   0.36687   0.36901
 Alpha virt. eigenvalues --    0.37200   0.38494   0.38787   0.39442   0.39685
 Alpha virt. eigenvalues --    0.40867   0.41660   0.41855   0.42847   0.43525
 Alpha virt. eigenvalues --    0.44294   0.44695   0.45170   0.45841   0.46796
 Alpha virt. eigenvalues --    0.48001   0.48429   0.49034   0.50941   0.51900
 Alpha virt. eigenvalues --    0.52885   0.55120   0.57179   0.58078   0.59061
 Alpha virt. eigenvalues --    0.60402   0.63289   0.63969   0.68536   0.69644
 Alpha virt. eigenvalues --    0.70587   0.70846   0.71734   0.72479   0.73006
 Alpha virt. eigenvalues --    0.73852   0.74646   0.74761   0.75678   0.76377
 Alpha virt. eigenvalues --    0.76426   0.77105   0.77818   0.78038   0.78847
 Alpha virt. eigenvalues --    0.79435   0.79918   0.80682   0.81298   0.82109
 Alpha virt. eigenvalues --    0.83096   0.83621   0.84496   0.85125   0.85796
 Alpha virt. eigenvalues --    0.86795   0.87939   0.89694   0.90395   0.90575
 Alpha virt. eigenvalues --    0.91477   0.91899   0.92325   0.93094   0.93646
 Alpha virt. eigenvalues --    0.93898   0.95913   0.96633   0.96953   0.97854
 Alpha virt. eigenvalues --    0.98147   0.98918   0.99404   0.99837   1.00887
 Alpha virt. eigenvalues --    1.01169   1.01604   1.02415   1.02949   1.03724
 Alpha virt. eigenvalues --    1.03985   1.04252   1.04918   1.06290   1.06606
 Alpha virt. eigenvalues --    1.07141   1.07734   1.08582   1.09863   1.10868
 Alpha virt. eigenvalues --    1.11172   1.12095   1.12751   1.13171   1.13691
 Alpha virt. eigenvalues --    1.13829   1.14231   1.14527   1.14957   1.15329
 Alpha virt. eigenvalues --    1.16026   1.16153   1.17043   1.17263   1.17940
 Alpha virt. eigenvalues --    1.18016   1.18349   1.18434   1.18787   1.19199
 Alpha virt. eigenvalues --    1.19539   1.20040   1.20370   1.21014   1.21168
 Alpha virt. eigenvalues --    1.21637   1.21886   1.21972   1.22559   1.22806
 Alpha virt. eigenvalues --    1.23008   1.23145   1.23360   1.23946   1.25278
 Alpha virt. eigenvalues --    1.25506   1.26739   1.27070   1.27349   1.28440
 Alpha virt. eigenvalues --    1.29292   1.29684   1.30811   1.31111   1.32009
 Alpha virt. eigenvalues --    1.32630   1.33141   1.34482   1.35675   1.36866
 Alpha virt. eigenvalues --    1.38236   1.38481   1.39683   1.41101   1.42418
 Alpha virt. eigenvalues --    1.43614   1.44155   1.45236   1.46694   1.48309
 Alpha virt. eigenvalues --    1.49824   1.52260   1.53460   1.54005   1.54532
 Alpha virt. eigenvalues --    1.56730   1.58218   1.60133   1.60553   1.61150
 Alpha virt. eigenvalues --    1.61757   1.62492   1.63722   1.66022   1.67773
 Alpha virt. eigenvalues --    1.68421   1.70413   1.71893   1.72072   1.73535
 Alpha virt. eigenvalues --    1.73891   1.76944   1.77537   1.78153   1.78860
 Alpha virt. eigenvalues --    1.79697   1.81931   1.83425   1.87215   1.89119
 Alpha virt. eigenvalues --    1.89555   1.90474   1.92102   1.93595   1.95188
 Alpha virt. eigenvalues --    1.95906   1.96642   1.98160   1.99561   2.00981
 Alpha virt. eigenvalues --    2.03759   2.05082   2.05635   2.06684   2.07083
 Alpha virt. eigenvalues --    2.09416   2.10901   2.11172   2.11579   2.12269
 Alpha virt. eigenvalues --    2.12641   2.13146   2.14052   2.14343   2.15861
 Alpha virt. eigenvalues --    2.16280   2.16929   2.18305   2.19017   2.19210
 Alpha virt. eigenvalues --    2.19451   2.21003   2.21783   2.22669   2.23607
 Alpha virt. eigenvalues --    2.24417   2.25058   2.25710   2.26773   2.27381
 Alpha virt. eigenvalues --    2.28567   2.28821   2.29957   2.30486   2.31400
 Alpha virt. eigenvalues --    2.32491   2.33515   2.34700   2.34908   2.35814
 Alpha virt. eigenvalues --    2.36752   2.37073   2.37769   2.38265   2.39378
 Alpha virt. eigenvalues --    2.39760   2.40911   2.41943   2.43407   2.44373
 Alpha virt. eigenvalues --    2.45601   2.46503   2.47915   2.49572   2.50989
 Alpha virt. eigenvalues --    2.51571   2.52509   2.54125   2.54771   2.55712
 Alpha virt. eigenvalues --    2.56788   2.57218   2.57296   2.58490   2.60281
 Alpha virt. eigenvalues --    2.61499   2.62554   2.62861   2.64392   2.64700
 Alpha virt. eigenvalues --    2.65436   2.66932   2.69175   2.70457   2.71028
 Alpha virt. eigenvalues --    2.71599   2.72377   2.73265   2.74848   2.75833
 Alpha virt. eigenvalues --    2.76589   2.77463   2.78523   2.79224   2.79621
 Alpha virt. eigenvalues --    2.79951   2.81403   2.82426   2.84289   2.85812
 Alpha virt. eigenvalues --    2.85979   2.88488   2.88951   2.95090   2.96950
 Alpha virt. eigenvalues --    2.97642   2.98118   2.98339   2.99547   3.02877
 Alpha virt. eigenvalues --    3.03173   3.04610   3.04973   3.06426   3.06638
 Alpha virt. eigenvalues --    3.10840   3.11380   3.12779   3.14154   3.15205
 Alpha virt. eigenvalues --    3.16884   3.18697   3.25827   3.29617   3.29918
 Alpha virt. eigenvalues --    3.33108   3.34010   3.34675   3.38814   3.40290
 Alpha virt. eigenvalues --    3.42272   3.42992   3.53287   3.55252   3.57213
 Alpha virt. eigenvalues --    3.60136   4.37924   4.40916   4.44709   4.46869
 Alpha virt. eigenvalues --    4.48825   4.51561   4.55393   4.57406   4.61599
 Alpha virt. eigenvalues --    4.63164   4.66426   4.67874   4.68683   4.69768
 Alpha virt. eigenvalues --    4.71933   4.76845   4.79437   4.82003   4.84571
 Alpha virt. eigenvalues --    4.87584   4.89222   4.92628   4.93612   4.97464
 Alpha virt. eigenvalues --    5.01056   5.11638   5.21896   5.23216
          Condensed to atoms (all electrons):
 Mulliken atomic charges:
              1
     1  C   -0.279903
     2  N   -0.782838
     3  C    0.821467
     4  O   -0.629281
     5  C    0.102600
     6  C   -0.472434
     7  C   -0.334264
     8  C   -0.313210
     9  C   -0.359996
    10  C   -0.185050
    11  C   -0.180891
    12  C   -0.341897
    13  C   -0.312202
    14  C   -0.328595
    15  C    0.091253
    16  C   -0.509676
    17  N   -0.787226
    18  C    0.767024
    19  C   -0.595722
    20  O   -0.614442
    21  C    0.820076
    22  O   -0.639332
    23  N   -0.807102
    24  C   -0.274176
    25  N   -0.842666
    26  C    0.744767
    27  C   -0.588817
    28  O   -0.591736
    29  H    0.186693
    30  H    0.197611
    31  H    0.164214
    32  H    0.392092
    33  H    0.198505
    34  H    0.143726
    35  H    0.212640
    36  H    0.160288
    37  H    0.181735
    38  H    0.160805
    39  H    0.177005
    40  H    0.217072
    41  H    0.176251
    42  H    0.176532
    43  H    0.163548
    44  H    0.181654
    45  H    0.167963
    46  H    0.149135
    47  H    0.191110
    48  H    0.175796
    49  H    0.181174
    50  H    0.185616
    51  H    0.147316
    52  H    0.226570
    53  H    0.390615
    54  H    0.211625
    55  H    0.208955
    56  H    0.177566
    57  H    0.396235
    58  H    0.162619
    59  H    0.194177
    60  H    0.187522
    61  H    0.382308
    62  H    0.219067
    63  H    0.177687
    64  H    0.200843
 Sum of Mulliken atomic charges =   0.00000
 Mulliken charges with hydrogens summed into heavy atoms:
              1
     1  C    0.268615
     2  N   -0.390746
     3  C    0.821467
     4  O   -0.629281
     5  C    0.102600
     6  C    0.082437
     7  C    0.007760
     8  C    0.024600
     9  C    0.033327
    10  C   -0.008518
    11  C   -0.017343
    12  C    0.007720
    13  C    0.028043
    14  C    0.028375
    15  C    0.091253
    16  C    0.049826
    17  N   -0.396611
    18  C    0.767024
    19  C    0.002424
    20  O   -0.614442
    21  C    0.820076
    22  O   -0.639332
    23  N   -0.410867
    24  C    0.270141
    25  N   -0.460358
    26  C    0.744767
    27  C    0.008780
    28  O   -0.591736
 Sum of Mulliken charges with hydrogens summed into heavy atoms =   0.00000
 Electronic spatial extent (au):  <R**2>=          19038.3750
 Charge=              0.0000 electrons
 Dipole moment (field-independent basis, Debye):
    X=             -2.1063    Y=              2.2290    Z=             -2.3448  Tot=              3.8605
 Quadrupole moment (field-independent basis, Debye-Ang):
   XX=           -227.1160   YY=           -163.5640   ZZ=           -161.5984
   XY=             36.6583   XZ=             -6.5608   YZ=             -8.2843
 Traceless Quadrupole moment (field-independent basis, Debye-Ang):
   XX=            -43.0232   YY=             20.5288   ZZ=             22.4944
   XY=             36.6583   XZ=             -6.5608   YZ=             -8.2843
 Octapole moment (field-independent basis, Debye-Ang**2):
  XXX=           -193.8441  YYY=             86.5323  ZZZ=             20.2451  XYY=             19.9443
  XXY=            -28.3306  XXZ=             -8.4447  XZZ=              2.4614  YZZ=              0.4602
  YYZ=             -8.6789  XYZ=             16.8552
 Hexadecapole moment (field-independent basis, Debye-Ang**3):
 XXXX=         -23016.2555 YYYY=          -3226.1694 ZZZZ=          -1667.1135 XXXY=           1103.3132
 XXXZ=           -787.8790 YYYX=            178.9917 YYYZ=            -17.9807 ZZZX=             96.9032
 ZZZY=            -38.9267 XXYY=          -3908.2867 XXZZ=          -3394.7742 YYZZ=           -813.0583
 XXYZ=           -157.5926 YYXZ=             27.9502 ZZXY=            -34.4842
 N-N= 2.722626278810D+03 E-N=-8.476920884548D+03  KE= 1.294035323597D+03
 1\1\GINC-MOSURA\SP\RHF\6-31G(d)\C20H36N4O4\MARIE\05-Dec-2019\0\\#SP HF
 /6-31G* Geom=(ModRedundant)\\paramfit run\\0,1\C,0,0.,0.,0.\N,0,1.4481
 87,0.,0.\C,0,2.1232,0.47592,1.072365\O,0,1.590179,0.696732,2.124447\C,
 0,3.650505,0.594143,0.921539\C,0,4.198902,1.549248,1.986845\C,0,4.3077
 51,-0.809116,1.023981\C,0,4.133566,-1.622781,2.319066\C,0,2.832729,-2.
 433298,2.484965\C,0,2.579342,-3.423586,1.372579\C,0,2.834093,-4.721989
 ,1.375535\C,0,2.090468,-5.805217,0.631631\C,0,2.802792,-6.305582,-0.63
 7933\C,0,4.176791,-6.921771,-0.342375\C,0,4.924859,-7.624749,-1.504641
 \C,0,6.285811,-8.093869,-0.965022\N,0,4.145449,-8.780831,-1.925978\C,0
 ,4.488204,-9.508554,-3.0287\C,0,3.401912,-10.41833,-3.555088\O,0,5.568
 068,-9.437093,-3.546319\C,0,5.017117,-6.643207,-2.69493\O,0,4.097223,-
 6.530027,-3.459727\N,0,6.114782,-5.86016,-2.772064\C,0,6.288262,-4.954
 955,-3.889521\N,0,3.997412,1.070275,-0.425452\C,0,3.587019,2.267163,-0
 .934086\C,0,4.328148,2.727659,-2.172145\O,0,2.697134,2.905425,-0.44739
 7\H,0,-0.403259,1.006147,0.\H,0,-0.36496,-0.516002,0.875939\H,0,-0.345
 658,-0.522086,-0.883346\H,0,1.904244,0.070913,-0.879357\H,0,3.932135,1
 .22176,2.980082\H,0,5.28092,1.595925,1.9075\H,0,3.792711,2.540594,1.84
 8395\H,0,5.374584,-0.64325,0.891407\H,0,3.984642,-1.403324,0.174983\H,
 0,4.961565,-2.324757,2.354635\H,0,4.250121,-0.975721,3.182259\H,0,1.98
 5724,-1.764045,2.562723\H,0,2.895638,-2.94811,3.437249\H,0,2.135502,-3
 .009181,0.481856\H,0,3.668341,-5.059368,1.970486\H,0,1.10271,-5.459222
 ,0.352189\H,0,1.937274,-6.646094,1.306948\H,0,2.150538,-7.028721,-1.11
 9607\H,0,2.905831,-5.485812,-1.336639\H,0,4.078903,-7.657819,0.452726\
 H,0,4.831282,-6.144148,0.033514\H,0,6.116665,-8.85129,-0.208528\H,0,6.
 823982,-7.278185,-0.493415\H,0,6.896122,-8.526032,-1.7438\H,0,3.167564
 ,-8.718117,-1.757099\H,0,3.851503,-11.195546,-4.154141\H,0,2.736564,-9
 .834628,-4.184157\H,0,2.817447,-10.861153,-2.755908\H,0,6.932383,-6.14
 3041,-2.285427\H,0,7.158211,-4.338967,-3.703325\H,0,5.419862,-4.319441
 ,-3.98242\H,0,6.423117,-5.489999,-4.824024\H,0,4.82812,0.684785,-0.816
 437\H,0,3.710173,3.434604,-2.706288\H,0,4.588171,1.902533,-2.825678\H,
 0,5.244771,3.226201,-1.873716\\Version=EM64L-G09RevA.02\State=1-A\HF=-
 1295.6017624\RMSD=6.314e-09\Dipole=1.3745933,-0.4971298,-0.4125103\Qua
 drupole=13.7987769,-9.1658153,-4.6329617,25.1357529,9.6247104,-26.4584
 561\PG=C01 [X(C20H36N4O4)]\\@


      TO SUSPECT YOUR OWN MORTALITY IS TO KNOW THE BEGINNING OF TERROR.
      TO LEARN IRREFUTABLY THAT YOU ARE MORTAL IS TO KNOW THE END
      OF TERROR.

                                                  -- JESSICA
                                                     CHILDREN OF DUNE
                                                     BY FRANK HERBERT
 Job cpu time:  0 days  0 hours  5 minutes 31.8 seconds.
 File lengths (MBytes):  RWF=    132 Int=      0 D2E=      0 Chk=     10 Scr=      1
 Normal termination of Gaussian 09 at Thu Dec  5 18:59:09 2019.
