 Entering Gaussian System, Link 0=g09
 Input=CHI5_-130.gau
 Output=CHI5_-130.log
 Initial command:
 /home/marie/Utilities//g09/l1.exe /tmp/g09/Gau-7767.inp -scrdir=/tmp/g09/
 Entering Link 1 = /home/marie/Utilities//g09/l1.exe PID=      7769.
  
 Copyright (c) 1988,1990,1992,1993,1995,1998,2003,2009, Gaussian, Inc.
                  All Rights Reserved.
  
 This is part of the Gaussian(R) 09 program.  It is based on
 the Gaussian(R) 03 system (copyright 2003, Gaussian, Inc.),
 the Gaussian(R) 98 system (copyright 1998, Gaussian, Inc.),
 the Gaussian(R) 94 system (copyright 1995, Gaussian, Inc.),
 the Gaussian 92(TM) system (copyright 1992, Gaussian, Inc.),
 the Gaussian 90(TM) system (copyright 1990, Gaussian, Inc.),
 the Gaussian 88(TM) system (copyright 1988, Gaussian, Inc.),
 the Gaussian 86(TM) system (copyright 1986, Carnegie Mellon
 University), and the Gaussian 82(TM) system (copyright 1983,
 Carnegie Mellon University). Gaussian is a federally registered
 trademark of Gaussian, Inc.
  
 This software contains proprietary and confidential information,
 including trade secrets, belonging to Gaussian, Inc.
  
 This software is provided under written license and may be
 used, copied, transmitted, or stored only in accord with that
 written license.
  
 The following legend is applicable only to US Government
 contracts under FAR:
  
                    RESTRICTED RIGHTS LEGEND
  
 Use, reproduction and disclosure by the US Government is
 subject to restrictions as set forth in subparagraphs (a)
 and (c) of the Commercial Computer Software - Restricted
 Rights clause in FAR 52.227-19.
  
 Gaussian, Inc.
 340 Quinnipiac St., Bldg. 40, Wallingford CT 06492
  
  
 ---------------------------------------------------------------
 Warning -- This program may not be used in any manner that
 competes with the business of Gaussian, Inc. or will provide
 assistance to any competitor of Gaussian, Inc.  The licensee
 of this program is prohibited from giving any competitor of
 Gaussian, Inc. access to this program.  By using this program,
 the user acknowledges that Gaussian, Inc. is engaged in the
 business of creating and licensing software in the field of
 computational chemistry and represents and warrants to the
 licensee that it is not a competitor of Gaussian, Inc. and that
 it will not use this program in any manner prohibited above.
 ---------------------------------------------------------------
  

 Cite this work as:
 Gaussian 09, Revision A.02,
 M. J. Frisch, G. W. Trucks, H. B. Schlegel, G. E. Scuseria, 
 M. A. Robb, J. R. Cheeseman, G. Scalmani, V. Barone, B. Mennucci, 
 G. A. Petersson, H. Nakatsuji, M. Caricato, X. Li, H. P. Hratchian, 
 A. F. Izmaylov, J. Bloino, G. Zheng, J. L. Sonnenberg, M. Hada, 
 M. Ehara, K. Toyota, R. Fukuda, J. Hasegawa, M. Ishida, T. Nakajima, 
 Y. Honda, O. Kitao, H. Nakai, T. Vreven, J. A. Montgomery, Jr., 
 J. E. Peralta, F. Ogliaro, M. Bearpark, J. J. Heyd, E. Brothers, 
 K. N. Kudin, V. N. Staroverov, R. Kobayashi, J. Normand, 
 K. Raghavachari, A. Rendell, J. C. Burant, S. S. Iyengar, J. Tomasi, 
 M. Cossi, N. Rega, J. M. Millam, M. Klene, J. E. Knox, J. B. Cross, 
 V. Bakken, C. Adamo, J. Jaramillo, R. Gomperts, R. E. Stratmann, 
 O. Yazyev, A. J. Austin, R. Cammi, C. Pomelli, J. W. Ochterski, 
 R. L. Martin, K. Morokuma, V. G. Zakrzewski, G. A. Voth, 
 P. Salvador, J. J. Dannenberg, S. Dapprich, A. D. Daniels, 
 O. Farkas, J. B. Foresman, J. V. Ortiz, J. Cioslowski, 
 and D. J. Fox, Gaussian, Inc., Wallingford CT, 2009.
 
 ******************************************
 Gaussian 09:  EM64L-G09RevA.02 11-Jun-2009
                 5-Dec-2019 
 ******************************************
 %chk=CHI5_-130
 %NoSave
 ---------------------------------
 #SP HF/6-31G* Geom=(ModRedundant)
 ---------------------------------
 1/18=120,38=1/1;
 2/12=2,17=6,18=5,40=1/2;
 3/5=1,6=6,7=1,11=9,16=1,25=1,30=1/1,2,3;
 4//1;
 5/5=2,38=5/2;
 6/7=2,8=2,9=2,10=2,28=1/1;
 99/5=1,9=1/99;
 ------------
 paramfit run
 ------------
 Symbolic Z-matrix:
 Charge =  0 Multiplicity = 1
 C-CT--0.3208          0.        0.        0. 
 N-N--0.5622           1.44819   0.        0. 
 C-C-0.8053            2.1232    0.47592   1.07237 
 O-O--0.6151           1.59018   0.69673   2.12445 
 C-CX-0.0839           3.65051   0.59414   0.92154 
 C-CU--0.3230          4.1989    1.54925   1.98685 
 C-CU--0.0657          4.30775  -0.80912   1.02398 
 C-CU--0.0109          4.13357  -1.62278   2.31907 
 C-CU-0.0816           2.83273  -2.4333    2.48497 
 C-CM--0.2354          2.57934  -3.42359   1.37258 
 C-CM--0.2653          2.83409  -4.72199   1.37554 
 C-CU-0.1214           3.57231  -5.51518   0.32404 
 C-CU--0.0354          5.02348  -5.86684   0.69824 
 C-CU--0.0984          5.1162   -6.73221   1.96214 
 C-CU-0.1300           6.50309  -7.30632   2.35147 
 C-CU--0.3561          6.33409  -8.07384   3.67276 
 N-N--0.7186           6.93392  -8.22636   1.30771 
 C-C-0.8537            8.18441  -8.77347   1.31091 
 C-CT--0.3868          8.61504  -9.38741  -0.00151 
 O-O--0.6323           8.89373  -8.77133   2.27839 
 C-C-0.7903            7.51638  -6.1412    2.41829 
 O-O--0.6136           8.04936  -5.7435    1.41744 
 N-N--0.5650           7.69116  -5.53634   3.6131 
 C-CT--0.3231          8.66277  -4.47166   3.75675 
 N-N--0.7191           3.99741   1.07028  -0.42545 
 C-C-0.8539            3.58702   2.26716  -0.93409 
 C-CT--0.3903          4.32815   2.72766  -2.17214 
 O-O--0.6290           2.69713   2.90543  -0.4474 
 H-H1-0.1459          -0.40326   1.00615   0. 
 H-H1-0.1459          -0.36496  -0.516     0.87594 
 H-H1-0.1459          -0.34566  -0.52209  -0.88335 
 H-H-0.3572            1.90424   0.07091  -0.87936 
 H-HC-0.0997           3.93214   1.22176   2.98008 
 H-HC-0.0997           5.28092   1.59593   1.9075 
 H-HC-0.0997           3.79271   2.54059   1.8484 
 H-HC-0.0347           5.37458  -0.64325   0.89141 
 H-HC-0.0347           3.98464  -1.40332   0.17498 
 H-HC-0.0243           4.96157  -2.32476   2.35464 
 H-HC-0.0243           4.25012  -0.97572   3.18226 
 H-HC-0.0171           1.98572  -1.76405   2.56272 
 H-HC-0.0171           2.89564  -2.94811   3.43725 
 H-HA-0.1313           2.1355   -3.00918   0.48186 
 H-HA-0.1359           2.48319  -5.29133   2.22199 
 H-HC-0.0092           3.5857   -4.97425  -0.61441 
 H-HC-0.0092           3.02177  -6.43598   0.1353 
 H-HC-0.0318           5.47003  -6.37522  -0.15177 
 H-HC-0.0318           5.5897   -4.95429   0.83046 
 H-HC-0.0435           4.44465  -7.58284   1.86735 
 H-HC-0.0435           4.76367  -6.1511    2.80617 
 H-HC-0.1066           5.68866  -8.92683   3.49837 
 H-HC-0.1066           5.85931  -7.45625   4.42811 
 H-HC-0.1066           7.27951  -8.43763   4.04637 
 H-H-0.3529            6.56109  -8.04738   0.40346 
 H-HC-0.1047           9.40864  -10.09535   0.18314 
 H-HC-0.1047           8.99441  -8.59876  -0.64435 
 H-HC-0.1047           7.79373  -9.87968  -0.51091 
 H-H-0.3615            7.43286  -6.02955   4.43489 
 H-H1-0.1469           8.56309  -4.04409   4.74578 
 H-H1-0.1469           8.4745   -3.70417   3.02045 
 H-H1-0.1469           9.67778  -4.83219   3.62436 
 H-H-0.3570            4.82812   0.68479  -0.81644 
 H-HC-0.1060           3.71017   3.4346   -2.70629 
 H-HC-0.1060           4.58817   1.90253  -2.82568 
 H-HC-0.1060           5.24477   3.2262   -1.87372 
 
 The following ModRedundant input section has been read:
 D    *   10   11    * F                                                       
 Stoichiometry    C20H36N4O4
 Framework group  C1[X(C20H36N4O4)]
 Deg. of freedom   186
 Full point group                 C1      NOp   1
 Largest Abelian subgroup         C1      NOp   1
 Largest concise Abelian subgroup C1      NOp   1
                         Standard orientation:                         
 ---------------------------------------------------------------------
 Center     Atomic      Atomic             Coordinates (Angstroms)
 Number     Number       Type             X           Y           Z
 ---------------------------------------------------------------------
      1          6    20001001       -5.304976    2.720546    0.428973
      2          7    20001014       -4.629585    1.442196    0.512125
      3          6    20001002       -4.539580    0.653731   -0.584383
      4          8    20001024       -4.795322    1.050700   -1.687450
      5          6    90000001       -3.956220   -0.754212   -0.368111
      6          6    90000002       -4.341988   -1.655860   -1.545419
      7          6    90000002       -2.415030   -0.673293   -0.195520
      8          6    90000002       -1.563888   -0.100948   -1.343394
      9          6    90000002       -1.438722    1.432218   -1.445230
     10          6    20001004       -0.893111    2.088613   -0.198741
     11          6    20001004        0.352022    2.472804    0.031036
     12          6    90000002        1.199853    2.163177    1.241436
     13          6    90000002        2.247098    1.057815    1.015563
     14          6    90000002        3.262091    1.417917   -0.077612
     15          6    90000002        4.474891    0.474057   -0.284715
     16          6    90000002        5.293033    1.020926   -1.465828
     17          7    20001014        5.290718    0.495484    0.921725
     18          6    20001002        6.348847   -0.351657    1.082262
     19          6    20001001        6.852103   -0.481287    2.501676
     20          8    20001024        6.847277   -0.951180    0.170516
     21          6    20001002        3.948931   -0.964964   -0.487965
     22          8    20001024        3.677332   -1.650528    0.460805
     23          7    20001014        3.715281   -1.368841   -1.755353
     24          6    20001001        3.270432   -2.721767   -2.019741
     25          7    20001014       -4.443237   -1.322193    0.897449
     26          6    20001002       -5.761521   -1.535814    1.173433
     27          6    20001001       -6.032045   -2.441342    2.357053
     28          8    20001024       -6.644697   -1.035761    0.536183
     29          1    20001035       -6.365444    2.604605    0.236842
     30          1    20001035       -4.874326    3.309720   -0.367355
     31          1    20001035       -5.168239    3.245328    1.366128
     32          1    20001029       -4.632425    0.981268    1.391798
     33          1    20001034       -4.008451   -1.238434   -2.483204
     34          1    20001034       -3.891740   -2.635141   -1.413045
     35          1    20001034       -5.415244   -1.766222   -1.598981
     36          1    20001034       -2.084533   -1.696591   -0.031651
     37          1    20001034       -2.199224   -0.133608    0.721240
     38          1    20001034       -0.562840   -0.501585   -1.212963
     39          1    20001034       -1.919364   -0.482687   -2.294859
     40          1    20001034       -2.400408    1.868214   -1.682784
     41          1    20001034       -0.796185    1.645322   -2.292322
     42          1    20001033       -1.615459    2.260615    0.582758
     43          1    20001033        0.830309    3.073742   -0.726510
     44          1    20001034        0.572683    1.870870    2.074910
     45          1    20001034        1.708438    3.075643    1.550210
     46          1    20001034        2.747263    0.877820    1.963092
     47          1    20001034        1.743096    0.133761    0.764690
     48          1    20001034        3.669850    2.406972    0.119967
     49          1    20001034        2.741676    1.480639   -1.026075
     50          1    20001034        5.701075    1.985757   -1.188011
     51          1    20001034        4.668438    1.171924   -2.340163
     52          1    20001034        6.114827    0.367674   -1.718128
     53          1    20001029        4.803242    0.714840    1.760153
     54          1    20001034        7.868389   -0.844501    2.484419
     55          1    20001034        6.232602   -1.204402    3.023644
     56          1    20001034        6.806665    0.460058    3.038507
     57          1    20001029        4.166429   -0.886056   -2.496091
     58          1    20001035        3.026467   -2.806094   -3.070592
     59          1    20001035        2.388174   -2.936561   -1.434838
     60          1    20001035        4.033214   -3.452424   -1.770624
     61          1    20001029       -3.790065   -1.885833    1.394665
     62          1    20001034       -7.026791   -2.242658    2.728505
     63          1    20001034       -5.309820   -2.302517    3.153714
     64          1    20001034       -5.984552   -3.475779    2.032266
 ---------------------------------------------------------------------
 Rotational constants (GHZ):      0.3268826      0.0587245      0.0566548
 Standard basis: 6-31G(d) (6D, 7F)
 There are   492 symmetry adapted basis functions of A   symmetry.
 Integral buffers will be    131072 words long.
 Raffenetti 1 integral format.
 Two-electron integral symmetry is turned on.
   492 basis functions,   928 primitive gaussians,   492 cartesian basis functions
   108 alpha electrons      108 beta electrons
       nuclear repulsion energy      2736.7968077668 Hartrees.
 NAtoms=   64 NActive=   64 NUniq=   64 SFac= 7.50D-01 NAtFMM=   80 NAOKFM=F Big=T
 One-electron integrals computed using PRISM.
 NBasis=   492 RedAO= T  NBF=   492
 NBsUse=   492 1.00D-06 NBFU=   492
 Harris functional with IExCor=  205 diagonalized for initial guess.
 ExpMin= 1.61D-01 ExpMax= 5.48D+03 ExpMxC= 8.25D+02 IAcc=1 IRadAn=         1 AccDes= 0.00D+00
 HarFok:  IExCor=  205 AccDes= 0.00D+00 IRadAn=         1 IDoV= 1
 ScaDFX=  1.000000  1.000000  1.000000  1.000000
 FoFCou: FMM=F IPFlag=           0 FMFlag=      100000 FMFlg1=           1
         NFxFlg=           0 DoJE=T BraDBF=F KetDBF=T FulRan=T
         Omega=  0.000000  0.000000  1.000000  0.000000  0.000000 ICntrl=     500 IOpCl=  0
         NMat0=    1 NMatS0=    1 NMatT0=    0 NMatD0=    1 NMtDS0=    0 NMtDT0=    0
         I1Cent=           4 NGrid=           0.
 Petite list used in FoFCou.
 Initial guess orbital symmetries:
       Occupied  (A) (A) (A) (A) (A) (A) (A) (A) (A) (A) (A) (A)
                 (A) (A) (A) (A) (A) (A) (A) (A) (A) (A) (A) (A)
                 (A) (A) (A) (A) (A) (A) (A) (A) (A) (A) (A) (A)
                 (A) (A) (A) (A) (A) (A) (A) (A) (A) (A) (A) (A)
                 (A) (A) (A) (A) (A) (A) (A) (A) (A) (A) (A) (A)
                 (A) (A) (A) (A) (A) (A) (A) (A) (A) (A) (A) (A)
                 (A) (A) (A) (A) (A) (A) (A) (A) (A) (A) (A) (A)
                 (A) (A) (A) (A) (A) (A) (A) (A) (A) (A) (A) (A)
                 (A) (A) (A) (A) (A) (A) (A) (A) (A) (A) (A) (A)
       Virtual   (A) (A) (A) (A) (A) (A) (A) (A) (A) (A) (A) (A)
                 (A) (A) (A) (A) (A) (A) (A) (A) (A) (A) (A) (A)
                 (A) (A) (A) (A) (A) (A) (A) (A) (A) (A) (A) (A)
                 (A) (A) (A) (A) (A) (A) (A) (A) (A) (A) (A) (A)
                 (A) (A) (A) (A) (A) (A) (A) (A) (A) (A) (A) (A)
                 (A) (A) (A) (A) (A) (A) (A) (A) (A) (A) (A) (A)
                 (A) (A) (A) (A) (A) (A) (A) (A) (A) (A) (A) (A)
                 (A) (A) (A) (A) (A) (A) (A) (A) (A) (A) (A) (A)
                 (A) (A) (A) (A) (A) (A) (A) (A) (A) (A) (A) (A)
                 (A) (A) (A) (A) (A) (A) (A) (A) (A) (A) (A) (A)
                 (A) (A) (A) (A) (A) (A) (A) (A) (A) (A) (A) (A)
                 (A) (A) (A) (A) (A) (A) (A) (A) (A) (A) (A) (A)
                 (A) (A) (A) (A) (A) (A) (A) (A) (A) (A) (A) (A)
                 (A) (A) (A) (A) (A) (A) (A) (A) (A) (A) (A) (A)
                 (A) (A) (A) (A) (A) (A) (A) (A) (A) (A) (A) (A)
                 (A) (A) (A) (A) (A) (A) (A) (A) (A) (A) (A) (A)
                 (A) (A) (A) (A) (A) (A) (A) (A) (A) (A) (A) (A)
                 (A) (A) (A) (A) (A) (A) (A) (A) (A) (A) (A) (A)
                 (A) (A) (A) (A) (A) (A) (A) (A) (A) (A) (A) (A)
                 (A) (A) (A) (A) (A) (A) (A) (A) (A) (A) (A) (A)
                 (A) (A) (A) (A) (A) (A) (A) (A) (A) (A) (A) (A)
                 (A) (A) (A) (A) (A) (A) (A) (A) (A) (A) (A) (A)
                 (A) (A) (A) (A) (A) (A) (A) (A) (A) (A) (A) (A)
                 (A) (A) (A) (A) (A) (A) (A) (A) (A) (A) (A) (A)
                 (A) (A) (A) (A) (A) (A) (A) (A) (A) (A) (A) (A)
                 (A) (A) (A) (A) (A) (A) (A) (A) (A) (A) (A) (A)
                 (A) (A) (A) (A) (A) (A) (A) (A) (A) (A) (A) (A)
                 (A) (A) (A) (A) (A) (A) (A) (A) (A) (A) (A) (A)
                 (A) (A) (A) (A) (A) (A) (A) (A) (A) (A) (A) (A)
                 (A) (A) (A) (A) (A) (A) (A) (A) (A) (A) (A) (A)
                 (A) (A) (A) (A) (A) (A) (A) (A) (A) (A) (A) (A)
                 (A) (A) (A) (A) (A) (A) (A) (A) (A) (A) (A) (A)
 The electronic state of the initial guess is 1-A.
 Requested convergence on RMS density matrix=1.00D-08 within 128 cycles.
 Requested convergence on MAX density matrix=1.00D-06.
 Requested convergence on             energy=1.00D-06.
 No special actions if energy rises.
 Integral accuracy reduced to 1.0D-05 until final iterations.
 Initial convergence to 1.0D-05 achieved.  Increase integral accuracy.
 SCF Done:  E(RHF) =  -1295.57010676     A.U. after   14 cycles
             Convg  =    0.7238D-08             -V/T =  2.0012

 **********************************************************************

            Population analysis using the SCF density.

 **********************************************************************

 Orbital symmetries:
       Occupied  (A) (A) (A) (A) (A) (A) (A) (A) (A) (A) (A) (A)
                 (A) (A) (A) (A) (A) (A) (A) (A) (A) (A) (A) (A)
                 (A) (A) (A) (A) (A) (A) (A) (A) (A) (A) (A) (A)
                 (A) (A) (A) (A) (A) (A) (A) (A) (A) (A) (A) (A)
                 (A) (A) (A) (A) (A) (A) (A) (A) (A) (A) (A) (A)
                 (A) (A) (A) (A) (A) (A) (A) (A) (A) (A) (A) (A)
                 (A) (A) (A) (A) (A) (A) (A) (A) (A) (A) (A) (A)
                 (A) (A) (A) (A) (A) (A) (A) (A) (A) (A) (A) (A)
                 (A) (A) (A) (A) (A) (A) (A) (A) (A) (A) (A) (A)
       Virtual   (A) (A) (A) (A) (A) (A) (A) (A) (A) (A) (A) (A)
                 (A) (A) (A) (A) (A) (A) (A) (A) (A) (A) (A) (A)
                 (A) (A) (A) (A) (A) (A) (A) (A) (A) (A) (A) (A)
                 (A) (A) (A) (A) (A) (A) (A) (A) (A) (A) (A) (A)
                 (A) (A) (A) (A) (A) (A) (A) (A) (A) (A) (A) (A)
                 (A) (A) (A) (A) (A) (A) (A) (A) (A) (A) (A) (A)
                 (A) (A) (A) (A) (A) (A) (A) (A) (A) (A) (A) (A)
                 (A) (A) (A) (A) (A) (A) (A) (A) (A) (A) (A) (A)
                 (A) (A) (A) (A) (A) (A) (A) (A) (A) (A) (A) (A)
                 (A) (A) (A) (A) (A) (A) (A) (A) (A) (A) (A) (A)
                 (A) (A) (A) (A) (A) (A) (A) (A) (A) (A) (A) (A)
                 (A) (A) (A) (A) (A) (A) (A) (A) (A) (A) (A) (A)
                 (A) (A) (A) (A) (A) (A) (A) (A) (A) (A) (A) (A)
                 (A) (A) (A) (A) (A) (A) (A) (A) (A) (A) (A) (A)
                 (A) (A) (A) (A) (A) (A) (A) (A) (A) (A) (A) (A)
                 (A) (A) (A) (A) (A) (A) (A) (A) (A) (A) (A) (A)
                 (A) (A) (A) (A) (A) (A) (A) (A) (A) (A) (A) (A)
                 (A) (A) (A) (A) (A) (A) (A) (A) (A) (A) (A) (A)
                 (A) (A) (A) (A) (A) (A) (A) (A) (A) (A) (A) (A)
                 (A) (A) (A) (A) (A) (A) (A) (A) (A) (A) (A) (A)
                 (A) (A) (A) (A) (A) (A) (A) (A) (A) (A) (A) (A)
                 (A) (A) (A) (A) (A) (A) (A) (A) (A) (A) (A) (A)
                 (A) (A) (A) (A) (A) (A) (A) (A) (A) (A) (A) (A)
                 (A) (A) (A) (A) (A) (A) (A) (A) (A) (A) (A) (A)
                 (A) (A) (A) (A) (A) (A) (A) (A) (A) (A) (A) (A)
                 (A) (A) (A) (A) (A) (A) (A) (A) (A) (A) (A) (A)
                 (A) (A) (A) (A) (A) (A) (A) (A) (A) (A) (A) (A)
                 (A) (A) (A) (A) (A) (A) (A) (A) (A) (A) (A) (A)
                 (A) (A) (A) (A) (A) (A) (A) (A) (A) (A) (A) (A)
                 (A) (A) (A) (A) (A) (A) (A) (A) (A) (A) (A) (A)
                 (A) (A) (A) (A) (A) (A) (A) (A) (A) (A) (A) (A)
                 (A) (A) (A) (A) (A) (A) (A) (A) (A) (A) (A) (A)
 The electronic state is 1-A.
 Alpha  occ. eigenvalues --  -20.53562 -20.52325 -20.52041 -20.51775 -15.59512
 Alpha  occ. eigenvalues --  -15.58338 -15.57812 -15.57453 -11.35877 -11.34530
 Alpha  occ. eigenvalues --  -11.34099 -11.33785 -11.28951 -11.28852 -11.25508
 Alpha  occ. eigenvalues --  -11.24845 -11.24250 -11.23892 -11.23610 -11.22970
 Alpha  occ. eigenvalues --  -11.22933 -11.22895 -11.22785 -11.22429 -11.22251
 Alpha  occ. eigenvalues --  -11.22013 -11.21814 -11.20818  -1.40500  -1.39727
 Alpha  occ. eigenvalues --   -1.38633  -1.38459  -1.25341  -1.23846  -1.23051
 Alpha  occ. eigenvalues --   -1.22003  -1.10806  -1.09427  -1.07280  -1.04525
 Alpha  occ. eigenvalues --   -1.01335  -0.99424  -0.98947  -0.95557  -0.95452
 Alpha  occ. eigenvalues --   -0.94938  -0.91968  -0.87373  -0.85574  -0.82922
 Alpha  occ. eigenvalues --   -0.81134  -0.79840  -0.78599  -0.77251  -0.77103
 Alpha  occ. eigenvalues --   -0.73668  -0.71774  -0.71116  -0.68990  -0.68134
 Alpha  occ. eigenvalues --   -0.65846  -0.65430  -0.64610  -0.64334  -0.63588
 Alpha  occ. eigenvalues --   -0.62491  -0.62387  -0.61942  -0.61747  -0.61177
 Alpha  occ. eigenvalues --   -0.61005  -0.60154  -0.59293  -0.59064  -0.58879
 Alpha  occ. eigenvalues --   -0.58156  -0.57781  -0.56813  -0.56620  -0.56406
 Alpha  occ. eigenvalues --   -0.55650  -0.55105  -0.54960  -0.54544  -0.54229
 Alpha  occ. eigenvalues --   -0.53548  -0.53107  -0.52609  -0.52288  -0.51786
 Alpha  occ. eigenvalues --   -0.50965  -0.50808  -0.50066  -0.49236  -0.48839
 Alpha  occ. eigenvalues --   -0.48198  -0.46967  -0.46400  -0.46280  -0.42797
 Alpha  occ. eigenvalues --   -0.41869  -0.41853  -0.41348  -0.39219  -0.39205
 Alpha  occ. eigenvalues --   -0.38676  -0.38246  -0.30235
 Alpha virt. eigenvalues --    0.13629   0.18879   0.19301   0.19930   0.20123
 Alpha virt. eigenvalues --    0.21140   0.21318   0.22861   0.23300   0.23708
 Alpha virt. eigenvalues --    0.24970   0.25615   0.25813   0.27048   0.27332
 Alpha virt. eigenvalues --    0.28055   0.28332   0.28442   0.29258   0.29509
 Alpha virt. eigenvalues --    0.29572   0.30450   0.30911   0.31284   0.31967
 Alpha virt. eigenvalues --    0.32200   0.32340   0.32509   0.33216   0.33226
 Alpha virt. eigenvalues --    0.33417   0.33910   0.34109   0.34622   0.34999
 Alpha virt. eigenvalues --    0.35285   0.35496   0.36404   0.36976   0.37108
 Alpha virt. eigenvalues --    0.37669   0.38461   0.38944   0.39541   0.39859
 Alpha virt. eigenvalues --    0.40930   0.41698   0.41921   0.43235   0.43745
 Alpha virt. eigenvalues --    0.44596   0.44747   0.45171   0.46151   0.46794
 Alpha virt. eigenvalues --    0.48018   0.48881   0.49101   0.50665   0.51960
 Alpha virt. eigenvalues --    0.52965   0.55218   0.57488   0.58827   0.59341
 Alpha virt. eigenvalues --    0.60761   0.63316   0.63992   0.69085   0.69693
 Alpha virt. eigenvalues --    0.70746   0.71192   0.72005   0.72773   0.73236
 Alpha virt. eigenvalues --    0.74485   0.74785   0.74858   0.76076   0.76117
 Alpha virt. eigenvalues --    0.76425   0.77237   0.77703   0.77984   0.78313
 Alpha virt. eigenvalues --    0.79326   0.80120   0.80481   0.81153   0.82240
 Alpha virt. eigenvalues --    0.83151   0.83732   0.84339   0.85290   0.85759
 Alpha virt. eigenvalues --    0.86847   0.87918   0.89343   0.89739   0.90640
 Alpha virt. eigenvalues --    0.91587   0.92070   0.92302   0.93400   0.93517
 Alpha virt. eigenvalues --    0.94666   0.95214   0.96747   0.96876   0.97840
 Alpha virt. eigenvalues --    0.98350   0.98687   0.99566   0.99627   1.00327
 Alpha virt. eigenvalues --    1.00981   1.01843   1.02149   1.02780   1.02939
 Alpha virt. eigenvalues --    1.03667   1.04534   1.05123   1.06052   1.06249
 Alpha virt. eigenvalues --    1.07204   1.07802   1.08261   1.09866   1.10798
 Alpha virt. eigenvalues --    1.11156   1.11671   1.12538   1.13080   1.13515
 Alpha virt. eigenvalues --    1.13662   1.14539   1.14567   1.14858   1.15556
 Alpha virt. eigenvalues --    1.15932   1.16296   1.16894   1.17254   1.17390
 Alpha virt. eigenvalues --    1.18048   1.18262   1.18419   1.18649   1.19475
 Alpha virt. eigenvalues --    1.19899   1.19993   1.20539   1.20964   1.21311
 Alpha virt. eigenvalues --    1.21614   1.21947   1.22149   1.22206   1.22742
 Alpha virt. eigenvalues --    1.23085   1.23147   1.23754   1.24252   1.25221
 Alpha virt. eigenvalues --    1.25722   1.26420   1.27121   1.27479   1.29004
 Alpha virt. eigenvalues --    1.29298   1.30116   1.30893   1.31773   1.32200
 Alpha virt. eigenvalues --    1.33253   1.33625   1.34512   1.36081   1.36373
 Alpha virt. eigenvalues --    1.38153   1.38774   1.39021   1.40223   1.41948
 Alpha virt. eigenvalues --    1.42327   1.44085   1.45448   1.47042   1.48207
 Alpha virt. eigenvalues --    1.49305   1.50392   1.53379   1.54038   1.54353
 Alpha virt. eigenvalues --    1.56926   1.58587   1.59663   1.60146   1.60872
 Alpha virt. eigenvalues --    1.61641   1.62075   1.64364   1.66356   1.66907
 Alpha virt. eigenvalues --    1.68735   1.69686   1.71959   1.72980   1.73632
 Alpha virt. eigenvalues --    1.73823   1.75935   1.77928   1.78773   1.79340
 Alpha virt. eigenvalues --    1.79999   1.81565   1.82205   1.87544   1.88979
 Alpha virt. eigenvalues --    1.89598   1.90857   1.92990   1.94151   1.95492
 Alpha virt. eigenvalues --    1.96620   1.97962   1.98448   1.99573   2.02149
 Alpha virt. eigenvalues --    2.04579   2.05329   2.06266   2.06676   2.07652
 Alpha virt. eigenvalues --    2.09014   2.11199   2.11610   2.11872   2.12424
 Alpha virt. eigenvalues --    2.13075   2.13585   2.14518   2.15151   2.16016
 Alpha virt. eigenvalues --    2.16473   2.17203   2.18502   2.18835   2.19506
 Alpha virt. eigenvalues --    2.20363   2.20899   2.21667   2.22320   2.23363
 Alpha virt. eigenvalues --    2.24509   2.25252   2.25844   2.26352   2.27388
 Alpha virt. eigenvalues --    2.28521   2.29638   2.29878   2.30335   2.31620
 Alpha virt. eigenvalues --    2.32289   2.33696   2.34308   2.34758   2.35149
 Alpha virt. eigenvalues --    2.36762   2.36829   2.38070   2.38550   2.39001
 Alpha virt. eigenvalues --    2.39731   2.40864   2.41997   2.42179   2.43923
 Alpha virt. eigenvalues --    2.45151   2.46446   2.47302   2.48901   2.50120
 Alpha virt. eigenvalues --    2.51196   2.53123   2.54369   2.55175   2.55306
 Alpha virt. eigenvalues --    2.56676   2.57029   2.57172   2.58678   2.59907
 Alpha virt. eigenvalues --    2.61759   2.62805   2.63934   2.64138   2.64725
 Alpha virt. eigenvalues --    2.65584   2.67172   2.68963   2.70144   2.70879
 Alpha virt. eigenvalues --    2.71532   2.71929   2.73754   2.74184   2.75297
 Alpha virt. eigenvalues --    2.76226   2.76918   2.77563   2.78787   2.79468
 Alpha virt. eigenvalues --    2.81433   2.83029   2.83983   2.85758   2.86148
 Alpha virt. eigenvalues --    2.87320   2.88380   2.90091   2.95030   2.95932
 Alpha virt. eigenvalues --    2.97013   2.97852   2.98377   2.99480   3.01487
 Alpha virt. eigenvalues --    3.03522   3.04551   3.05215   3.06573   3.07440
 Alpha virt. eigenvalues --    3.10815   3.11390   3.12729   3.13826   3.15160
 Alpha virt. eigenvalues --    3.16993   3.19117   3.26724   3.28615   3.30025
 Alpha virt. eigenvalues --    3.30449   3.34063   3.34730   3.38887   3.40296
 Alpha virt. eigenvalues --    3.42322   3.43078   3.53360   3.55332   3.57260
 Alpha virt. eigenvalues --    3.60216   4.38046   4.40961   4.44721   4.46915
 Alpha virt. eigenvalues --    4.48867   4.51593   4.55092   4.57508   4.61572
 Alpha virt. eigenvalues --    4.63298   4.66300   4.67527   4.68601   4.69853
 Alpha virt. eigenvalues --    4.71836   4.77000   4.79237   4.82213   4.85845
 Alpha virt. eigenvalues --    4.87857   4.90703   4.91166   4.93769   4.97748
 Alpha virt. eigenvalues --    5.01160   5.11763   5.22055   5.23290
          Condensed to atoms (all electrons):
 Mulliken atomic charges:
              1
     1  C   -0.279755
     2  N   -0.783047
     3  C    0.822446
     4  O   -0.628775
     5  C    0.102054
     6  C   -0.473154
     7  C   -0.335292
     8  C   -0.311747
     9  C   -0.356227
    10  C   -0.185160
    11  C   -0.185267
    12  C   -0.336302
    13  C   -0.308066
    14  C   -0.328178
    15  C    0.089224
    16  C   -0.509958
    17  N   -0.786829
    18  C    0.767235
    19  C   -0.595761
    20  O   -0.613618
    21  C    0.820038
    22  O   -0.641728
    23  N   -0.806139
    24  C   -0.274752
    25  N   -0.843121
    26  C    0.744390
    27  C   -0.588660
    28  O   -0.592213
    29  H    0.186808
    30  H    0.197497
    31  H    0.162757
    32  H    0.391560
    33  H    0.197416
    34  H    0.144678
    35  H    0.212614
    36  H    0.163687
    37  H    0.183864
    38  H    0.168478
    39  H    0.183200
    40  H    0.202411
    41  H    0.164393
    42  H    0.183305
    43  H    0.174484
    44  H    0.167341
    45  H    0.150577
    46  H    0.155519
    47  H    0.192320
    48  H    0.176143
    49  H    0.186400
    50  H    0.185285
    51  H    0.149565
    52  H    0.226631
    53  H    0.389272
    54  H    0.211904
    55  H    0.208058
    56  H    0.177246
    57  H    0.397020
    58  H    0.166625
    59  H    0.193972
    60  H    0.186195
    61  H    0.383497
    62  H    0.218291
    63  H    0.177793
    64  H    0.201556
 Sum of Mulliken atomic charges =   0.00000
 Mulliken charges with hydrogens summed into heavy atoms:
              1
     1  C    0.267307
     2  N   -0.391486
     3  C    0.822446
     4  O   -0.628775
     5  C    0.102054
     6  C    0.081554
     7  C    0.012259
     8  C    0.039931
     9  C    0.010577
    10  C   -0.001855
    11  C   -0.010783
    12  C   -0.018385
    13  C    0.039773
    14  C    0.034365
    15  C    0.089224
    16  C    0.051523
    17  N   -0.397557
    18  C    0.767235
    19  C    0.001447
    20  O   -0.613618
    21  C    0.820038
    22  O   -0.641728
    23  N   -0.409119
    24  C    0.272041
    25  N   -0.459624
    26  C    0.744390
    27  C    0.008980
    28  O   -0.592213
 Sum of Mulliken charges with hydrogens summed into heavy atoms =   0.00000
 Electronic spatial extent (au):  <R**2>=          19104.1602
 Charge=              0.0000 electrons
 Dipole moment (field-independent basis, Debye):
    X=              1.3098    Y=              0.0663    Z=              3.7784  Tot=              3.9995
 Quadrupole moment (field-independent basis, Debye-Ang):
   XX=           -220.3160   YY=           -165.7365   ZZ=           -157.4070
   XY=             22.2650   XZ=            -22.2815   YZ=              4.7463
 Traceless Quadrupole moment (field-independent basis, Debye-Ang):
   XX=            -39.1628   YY=             15.4166   ZZ=             23.7462
   XY=             22.2650   XZ=            -22.2815   YZ=              4.7463
 Octapole moment (field-independent basis, Debye-Ang**2):
  XXX=             84.7865  YYY=            -28.8965  ZZZ=             18.8565  XYY=            -59.1377
  XXY=             52.7396  XXZ=            169.5090  XZZ=             53.4946  YZZ=            -29.4185
  YYZ=              4.5816  XYZ=             15.6546
 Hexadecapole moment (field-independent basis, Debye-Ang**3):
 XXXX=         -23820.2095 YYYY=          -2666.6082 ZZZZ=          -1821.0026 XXXY=            451.3860
 XXXZ=           -219.5035 YYYX=              0.5840 YYYZ=             -3.3435 ZZZX=           -113.7518
 ZZZY=             16.6961 XXYY=          -3701.5351 XXZZ=          -3312.8997 YYZZ=           -739.3694
 XXYZ=              9.1373 YYXZ=           -131.1297 ZZXY=             23.6362
 N-N= 2.736796807767D+03 E-N=-8.505305073683D+03  KE= 1.294038815679D+03
 1\1\GINC-MOSURA\SP\RHF\6-31G(d)\C20H36N4O4\MARIE\05-Dec-2019\0\\#SP HF
 /6-31G* Geom=(ModRedundant)\\paramfit run\\0,1\C,0,0.,0.,0.\N,0,1.4481
 87,0.,0.\C,0,2.1232,0.47592,1.072365\O,0,1.590179,0.696732,2.124447\C,
 0,3.650505,0.594143,0.921539\C,0,4.198902,1.549248,1.986845\C,0,4.3077
 51,-0.809116,1.023981\C,0,4.133566,-1.622781,2.319066\C,0,2.832729,-2.
 433298,2.484965\C,0,2.579342,-3.423586,1.372579\C,0,2.834093,-4.721989
 ,1.375535\C,0,3.572311,-5.515175,0.324039\C,0,5.023475,-5.866835,0.698
 236\C,0,5.116198,-6.73221,1.962136\C,0,6.503088,-7.306318,2.351472\C,0
 ,6.334092,-8.073839,3.67276\N,0,6.933923,-8.226362,1.307714\C,0,8.1844
 12,-8.773467,1.310912\C,0,8.615044,-9.387407,-0.001506\O,0,8.893727,-8
 .771328,2.278387\C,0,7.516384,-6.141204,2.418291\O,0,8.04936,-5.743503
 ,1.417441\N,0,7.691157,-5.536335,3.6131\C,0,8.662773,-4.471663,3.75675
 2\N,0,3.997412,1.070275,-0.425452\C,0,3.587019,2.267163,-0.934086\C,0,
 4.328148,2.727659,-2.172145\O,0,2.697134,2.905425,-0.447397\H,0,-0.403
 259,1.006147,0.\H,0,-0.36496,-0.516002,0.875939\H,0,-0.345658,-0.52208
 6,-0.883346\H,0,1.904244,0.070913,-0.879357\H,0,3.932135,1.22176,2.980
 082\H,0,5.28092,1.595925,1.9075\H,0,3.792711,2.540594,1.848395\H,0,5.3
 74584,-0.64325,0.891407\H,0,3.984642,-1.403324,0.174983\H,0,4.961565,-
 2.324757,2.354635\H,0,4.250121,-0.975721,3.182259\H,0,1.985724,-1.7640
 45,2.562723\H,0,2.895638,-2.94811,3.437249\H,0,2.135502,-3.009181,0.48
 1856\H,0,2.483192,-5.291326,2.221989\H,0,3.5857,-4.974252,-0.614411\H,
 0,3.021773,-6.435979,0.1353\H,0,5.470028,-6.375223,-0.151768\H,0,5.589
 704,-4.954294,0.830464\H,0,4.444646,-7.582839,1.867351\H,0,4.763666,-6
 .151103,2.806165\H,0,5.688663,-8.926827,3.498369\H,0,5.859307,-7.45625
 4,4.428107\H,0,7.279507,-8.43763,4.046373\H,0,6.561089,-8.047378,0.403
 462\H,0,9.408636,-10.095345,0.183144\H,0,8.994409,-8.59876,-0.644346\H
 ,0,7.793729,-9.87968,-0.510909\H,0,7.432861,-6.029548,4.434887\H,0,8.5
 63094,-4.044092,4.745775\H,0,8.474502,-3.70417,3.020453\H,0,9.677784,-
 4.832191,3.624362\H,0,4.82812,0.684785,-0.816437\H,0,3.710173,3.434604
 ,-2.706288\H,0,4.588171,1.902533,-2.825678\H,0,5.244771,3.226201,-1.87
 3716\\Version=EM64L-G09RevA.02\State=1-A\HF=-1295.5701068\RMSD=7.238e-
 09\Dipole=0.3026541,-0.7087219,-1.371914\Quadrupole=-12.2178098,-9.675
 6466,21.8934564,27.9484603,4.5032089,-6.618986\PG=C01 [X(C20H36N4O4)]\
 \@


 A BIRD IN THE HAND IS SAFER THAN ONE OVERHEAD.

                       -- NEWTON'S SEVENTH LAW
 Job cpu time:  0 days  0 hours  5 minutes 40.4 seconds.
 File lengths (MBytes):  RWF=    132 Int=      0 D2E=      0 Chk=     10 Scr=      1
 Normal termination of Gaussian 09 at Thu Dec  5 17:36:11 2019.
