 Entering Gaussian System, Link 0=g09
 Input=CHI6_-90.gau
 Output=CHI6_-90.log
 Initial command:
 /home/marie/Utilities//g09/l1.exe /tmp/g09/Gau-12618.inp -scrdir=/tmp/g09/
 Entering Link 1 = /home/marie/Utilities//g09/l1.exe PID=     12620.
  
 Copyright (c) 1988,1990,1992,1993,1995,1998,2003,2009, Gaussian, Inc.
                  All Rights Reserved.
  
 This is part of the Gaussian(R) 09 program.  It is based on
 the Gaussian(R) 03 system (copyright 2003, Gaussian, Inc.),
 the Gaussian(R) 98 system (copyright 1998, Gaussian, Inc.),
 the Gaussian(R) 94 system (copyright 1995, Gaussian, Inc.),
 the Gaussian 92(TM) system (copyright 1992, Gaussian, Inc.),
 the Gaussian 90(TM) system (copyright 1990, Gaussian, Inc.),
 the Gaussian 88(TM) system (copyright 1988, Gaussian, Inc.),
 the Gaussian 86(TM) system (copyright 1986, Carnegie Mellon
 University), and the Gaussian 82(TM) system (copyright 1983,
 Carnegie Mellon University). Gaussian is a federally registered
 trademark of Gaussian, Inc.
  
 This software contains proprietary and confidential information,
 including trade secrets, belonging to Gaussian, Inc.
  
 This software is provided under written license and may be
 used, copied, transmitted, or stored only in accord with that
 written license.
  
 The following legend is applicable only to US Government
 contracts under FAR:
  
                    RESTRICTED RIGHTS LEGEND
  
 Use, reproduction and disclosure by the US Government is
 subject to restrictions as set forth in subparagraphs (a)
 and (c) of the Commercial Computer Software - Restricted
 Rights clause in FAR 52.227-19.
  
 Gaussian, Inc.
 340 Quinnipiac St., Bldg. 40, Wallingford CT 06492
  
  
 ---------------------------------------------------------------
 Warning -- This program may not be used in any manner that
 competes with the business of Gaussian, Inc. or will provide
 assistance to any competitor of Gaussian, Inc.  The licensee
 of this program is prohibited from giving any competitor of
 Gaussian, Inc. access to this program.  By using this program,
 the user acknowledges that Gaussian, Inc. is engaged in the
 business of creating and licensing software in the field of
 computational chemistry and represents and warrants to the
 licensee that it is not a competitor of Gaussian, Inc. and that
 it will not use this program in any manner prohibited above.
 ---------------------------------------------------------------
  

 Cite this work as:
 Gaussian 09, Revision A.02,
 M. J. Frisch, G. W. Trucks, H. B. Schlegel, G. E. Scuseria, 
 M. A. Robb, J. R. Cheeseman, G. Scalmani, V. Barone, B. Mennucci, 
 G. A. Petersson, H. Nakatsuji, M. Caricato, X. Li, H. P. Hratchian, 
 A. F. Izmaylov, J. Bloino, G. Zheng, J. L. Sonnenberg, M. Hada, 
 M. Ehara, K. Toyota, R. Fukuda, J. Hasegawa, M. Ishida, T. Nakajima, 
 Y. Honda, O. Kitao, H. Nakai, T. Vreven, J. A. Montgomery, Jr., 
 J. E. Peralta, F. Ogliaro, M. Bearpark, J. J. Heyd, E. Brothers, 
 K. N. Kudin, V. N. Staroverov, R. Kobayashi, J. Normand, 
 K. Raghavachari, A. Rendell, J. C. Burant, S. S. Iyengar, J. Tomasi, 
 M. Cossi, N. Rega, J. M. Millam, M. Klene, J. E. Knox, J. B. Cross, 
 V. Bakken, C. Adamo, J. Jaramillo, R. Gomperts, R. E. Stratmann, 
 O. Yazyev, A. J. Austin, R. Cammi, C. Pomelli, J. W. Ochterski, 
 R. L. Martin, K. Morokuma, V. G. Zakrzewski, G. A. Voth, 
 P. Salvador, J. J. Dannenberg, S. Dapprich, A. D. Daniels, 
 O. Farkas, J. B. Foresman, J. V. Ortiz, J. Cioslowski, 
 and D. J. Fox, Gaussian, Inc., Wallingford CT, 2009.
 
 ******************************************
 Gaussian 09:  EM64L-G09RevA.02 11-Jun-2009
                 5-Dec-2019 
 ******************************************
 %chk=CHI6_-90
 %NoSave
 ---------------------------------
 #SP HF/6-31G* Geom=(ModRedundant)
 ---------------------------------
 1/18=120,38=1/1;
 2/12=2,17=6,18=5,40=1/2;
 3/5=1,6=6,7=1,11=9,16=1,25=1,30=1/1,2,3;
 4//1;
 5/5=2,38=5/2;
 6/7=2,8=2,9=2,10=2,28=1/1;
 99/5=1,9=1/99;
 ------------
 paramfit run
 ------------
 Symbolic Z-matrix:
 Charge =  0 Multiplicity = 1
 C-CT--0.3208          0.        0.        0. 
 N-N--0.5622           1.44819   0.        0. 
 C-C-0.8053            2.1232    0.47592   1.07237 
 O-O--0.6151           1.59018   0.69673   2.12445 
 C-CX-0.0839           3.65051   0.59414   0.92154 
 C-CU--0.3230          4.1989    1.54925   1.98685 
 C-CU--0.0657          4.30775  -0.80912   1.02398 
 C-CU--0.0109          4.13357  -1.62278   2.31907 
 C-CU-0.0816           2.83273  -2.4333    2.48497 
 C-CM--0.2354          2.57934  -3.42359   1.37258 
 C-CM--0.2653          2.83409  -4.72199   1.37554 
 C-CU-0.1214           3.44273  -5.53566   2.49234 
 C-CU--0.0354          4.97864  -5.62708   2.44537 
 C-CU--0.0984          5.65745  -4.25563   2.56054 
 C-CU-0.1300           7.20087  -4.21692   2.70555 
 C-CU--0.3561          7.62771  -2.74037   2.73808 
 N-N--0.7186           7.56478  -4.8549    3.96335 
 C-C-0.8537            8.86805  -5.09474   4.2905 
 C-CT--0.3868          9.07135  -6.08288   5.41613 
 O-O--0.6323           9.7879   -4.56489   3.73168 
 C-C-0.7903            7.82386  -5.03338   1.55056 
 O-O--0.6136           7.92413  -6.22763   1.63798 
 N-N--0.5650           8.14671  -4.36707   0.42106 
 C-CT--0.3231          8.78091  -5.06222  -0.6802 
 N-N--0.7191           3.99741   1.07028  -0.42545 
 C-C-0.8539            3.58702   2.26716  -0.93409 
 C-CT--0.3903          4.32815   2.72766  -2.17214 
 O-O--0.6290           2.69713   2.90543  -0.4474 
 H-H1-0.1459          -0.40326   1.00615   0. 
 H-H1-0.1459          -0.36496  -0.516     0.87594 
 H-H1-0.1459          -0.34566  -0.52209  -0.88335 
 H-H-0.3572            1.90424   0.07091  -0.87936 
 H-HC-0.0997           3.93214   1.22176   2.98008 
 H-HC-0.0997           5.28092   1.59593   1.9075 
 H-HC-0.0997           3.79271   2.54059   1.8484 
 H-HC-0.0347           5.37458  -0.64325   0.89141 
 H-HC-0.0347           3.98464  -1.40332   0.17498 
 H-HC-0.0243           4.96157  -2.32476   2.35464 
 H-HC-0.0243           4.25012  -0.97572   3.18226 
 H-HC-0.0171           1.98572  -1.76405   2.56272 
 H-HC-0.0171           2.89564  -2.94811   3.43725 
 H-HA-0.1313           2.1355   -3.00918   0.48186 
 H-HA-0.1359           2.57948  -5.27639   0.48583 
 H-HC-0.0092           3.04276  -6.54236   2.48511 
 H-HC-0.0092           3.14259  -5.09709   3.44321 
 H-HC-0.0318           5.2954   -6.28387   3.25077 
 H-HC-0.0318           5.27982  -6.11475   1.52761 
 H-HC-0.0435           5.25254  -3.72328   3.41855 
 H-HC-0.0435           5.40504  -3.6698    1.68451 
 H-HC-0.1066           7.22535  -2.28259   3.63426 
 H-HC-0.1066           7.22811  -2.19688   1.88819 
 H-HC-0.1066           8.70215  -2.63623   2.75995 
 H-H-0.3529            6.92089  -5.53563   4.2961 
 H-HC-0.1047           10.05028  -5.93294   5.84539 
 H-HC-0.1047           9.0203   -7.08774   5.00773 
 H-HC-0.1047           8.31321  -5.98663   6.18577 
 H-H-0.3615            8.27588  -3.38423   0.47256 
 H-H1-0.1469           8.84413  -4.38772  -1.52399 
 H-H1-0.1469           8.18826  -5.92102  -0.95923 
 H-H1-0.1469           9.77785  -5.40337  -0.42043 
 H-H-0.3570            4.82812   0.68479  -0.81644 
 H-HC-0.1060           3.71017   3.4346   -2.70629 
 H-HC-0.1060           4.58817   1.90253  -2.82568 
 H-HC-0.1060           5.24477   3.2262   -1.87372 
 
 The following ModRedundant input section has been read:
 D    *   11   12    * F                                                       
 Stoichiometry    C20H36N4O4
 Framework group  C1[X(C20H36N4O4)]
 Deg. of freedom   186
 Full point group                 C1      NOp   1
 Largest Abelian subgroup         C1      NOp   1
 Largest concise Abelian subgroup C1      NOp   1
                         Standard orientation:                         
 ---------------------------------------------------------------------
 Center     Atomic      Atomic             Coordinates (Angstroms)
 Number     Number       Type             X           Y           Z
 ---------------------------------------------------------------------
      1          6    20001001       -5.246306    2.267110    0.767155
      2          7    20001014       -4.361807    1.128293    0.632990
      3          6    20001002       -3.950736    0.733828   -0.594824
      4          8    20001024       -4.099247    1.411630   -1.573739
      5          6    90000001       -3.151830   -0.580337   -0.658903
      6          6    90000002       -3.167357   -1.120867   -2.092579
      7          6    90000002       -1.701423   -0.349048   -0.154495
      8          6    90000002       -0.803823    0.657104   -0.897199
      9          6    90000002       -0.958255    2.149771   -0.544025
     10          6    20001004       -0.752147    2.459577    0.920153
     11          6    20001004        0.344637    2.919119    1.500362
     12          6    90000002        1.663266    3.246867    0.841916
     13          6    90000002        2.652498    2.068908    0.783617
     14          6    90000002        2.110841    0.879790   -0.021068
     15          6    90000002        3.071902   -0.302465   -0.309651
     16          6    90000002        2.273774   -1.375886   -1.067417
     17          7    20001014        4.158995    0.178262   -1.151470
     18          6    20001002        5.233435   -0.609632   -1.447883
     19          6    20001001        6.433669    0.128505   -1.995053
     20          8    20001024        5.232580   -1.798727   -1.289155
     21          6    20001002        3.673752   -0.785035    1.029614
     22          8    20001024        4.627811   -0.227097    1.501212
     23          7    20001014        3.026689   -1.774986    1.681754
     24          6    20001001        3.564737   -2.308986    2.916075
     25          7    20001014       -3.716135   -1.569332    0.271086
     26          6    20001002       -4.996416   -2.033142    0.197385
     27          6    20001001       -5.273735   -3.285828    1.002363
     28          8    20001024       -5.846258   -1.485742   -0.446247
     29          1    20001035       -6.221209    2.073688    0.334601
     30          1    20001035       -4.815015    3.124562    0.271688
     31          1    20001035       -5.362252    2.492603    1.819801
     32          1    20001029       -4.416240    0.423845    1.330899
     33          1    20001034       -2.775041   -0.394958   -2.788335
     34          1    20001034       -2.565713   -2.023380   -2.144847
     35          1    20001034       -4.177672   -1.353255   -2.396200
     36          1    20001034       -1.212411   -1.318853   -0.214215
     37          1    20001034       -1.740369   -0.092589    0.899541
     38          1    20001034        0.221619    0.374712   -0.677333
     39          1    20001034       -0.924760    0.541258   -1.969266
     40          1    20001034       -1.935315    2.503643   -0.846503
     41          1    20001034       -0.242049    2.697053   -1.146822
     42          1    20001033       -1.608586    2.284489    1.551001
     43          1    20001033        0.305661    3.087169    2.565257
     44          1    20001034        2.145665    4.069663    1.355497
     45          1    20001034        1.466887    3.595385   -0.171280
     46          1    20001034        3.579520    2.436853    0.352780
     47          1    20001034        2.895671    1.756154    1.790534
     48          1    20001034        1.752817    1.230391   -0.986693
     49          1    20001034        1.251878    0.472360    0.499060
     50          1    20001034        1.983539   -0.976006   -2.032012
     51          1    20001034        1.363954   -1.636872   -0.536857
     52          1    20001034        2.861589   -2.265936   -1.234820
     53          1    20001029        4.365252    1.147257   -1.066502
     54          1    20001034        7.060460   -0.566140   -2.533255
     55          1    20001034        6.999367    0.534630   -1.161883
     56          1    20001034        6.147411    0.947019   -2.646572
     57          1    20001029        2.410347   -2.357120    1.165468
     58          1    20001035        2.844681   -2.998256    3.337200
     59          1    20001035        3.735320   -1.505489    3.617446
     60          1    20001035        4.503875   -2.828319    2.754621
     61          1    20001029       -3.054832   -2.164736    0.717986
     62          1    20001034       -6.334175   -3.346783    1.199150
     63          1    20001034       -4.726705   -3.301888    1.938339
     64          1    20001034       -4.979342   -4.154457    0.422175
 ---------------------------------------------------------------------
 Rotational constants (GHZ):      0.2785277      0.0777753      0.0716273
 Standard basis: 6-31G(d) (6D, 7F)
 There are   492 symmetry adapted basis functions of A   symmetry.
 Integral buffers will be    131072 words long.
 Raffenetti 1 integral format.
 Two-electron integral symmetry is turned on.
   492 basis functions,   928 primitive gaussians,   492 cartesian basis functions
   108 alpha electrons      108 beta electrons
       nuclear repulsion energy      2847.5275534302 Hartrees.
 NAtoms=   64 NActive=   64 NUniq=   64 SFac= 7.50D-01 NAtFMM=   80 NAOKFM=F Big=T
 One-electron integrals computed using PRISM.
 NBasis=   492 RedAO= T  NBF=   492
 NBsUse=   492 1.00D-06 NBFU=   492
 Harris functional with IExCor=  205 diagonalized for initial guess.
 ExpMin= 1.61D-01 ExpMax= 5.48D+03 ExpMxC= 8.25D+02 IAcc=1 IRadAn=         1 AccDes= 0.00D+00
 HarFok:  IExCor=  205 AccDes= 0.00D+00 IRadAn=         1 IDoV= 1
 ScaDFX=  1.000000  1.000000  1.000000  1.000000
 FoFCou: FMM=F IPFlag=           0 FMFlag=      100000 FMFlg1=           1
         NFxFlg=           0 DoJE=T BraDBF=F KetDBF=T FulRan=T
         Omega=  0.000000  0.000000  1.000000  0.000000  0.000000 ICntrl=     500 IOpCl=  0
         NMat0=    1 NMatS0=    1 NMatT0=    0 NMatD0=    1 NMtDS0=    0 NMtDT0=    0
         I1Cent=           4 NGrid=           0.
 Petite list used in FoFCou.
 Initial guess orbital symmetries:
       Occupied  (A) (A) (A) (A) (A) (A) (A) (A) (A) (A) (A) (A)
                 (A) (A) (A) (A) (A) (A) (A) (A) (A) (A) (A) (A)
                 (A) (A) (A) (A) (A) (A) (A) (A) (A) (A) (A) (A)
                 (A) (A) (A) (A) (A) (A) (A) (A) (A) (A) (A) (A)
                 (A) (A) (A) (A) (A) (A) (A) (A) (A) (A) (A) (A)
                 (A) (A) (A) (A) (A) (A) (A) (A) (A) (A) (A) (A)
                 (A) (A) (A) (A) (A) (A) (A) (A) (A) (A) (A) (A)
                 (A) (A) (A) (A) (A) (A) (A) (A) (A) (A) (A) (A)
                 (A) (A) (A) (A) (A) (A) (A) (A) (A) (A) (A) (A)
       Virtual   (A) (A) (A) (A) (A) (A) (A) (A) (A) (A) (A) (A)
                 (A) (A) (A) (A) (A) (A) (A) (A) (A) (A) (A) (A)
                 (A) (A) (A) (A) (A) (A) (A) (A) (A) (A) (A) (A)
                 (A) (A) (A) (A) (A) (A) (A) (A) (A) (A) (A) (A)
                 (A) (A) (A) (A) (A) (A) (A) (A) (A) (A) (A) (A)
                 (A) (A) (A) (A) (A) (A) (A) (A) (A) (A) (A) (A)
                 (A) (A) (A) (A) (A) (A) (A) (A) (A) (A) (A) (A)
                 (A) (A) (A) (A) (A) (A) (A) (A) (A) (A) (A) (A)
                 (A) (A) (A) (A) (A) (A) (A) (A) (A) (A) (A) (A)
                 (A) (A) (A) (A) (A) (A) (A) (A) (A) (A) (A) (A)
                 (A) (A) (A) (A) (A) (A) (A) (A) (A) (A) (A) (A)
                 (A) (A) (A) (A) (A) (A) (A) (A) (A) (A) (A) (A)
                 (A) (A) (A) (A) (A) (A) (A) (A) (A) (A) (A) (A)
                 (A) (A) (A) (A) (A) (A) (A) (A) (A) (A) (A) (A)
                 (A) (A) (A) (A) (A) (A) (A) (A) (A) (A) (A) (A)
                 (A) (A) (A) (A) (A) (A) (A) (A) (A) (A) (A) (A)
                 (A) (A) (A) (A) (A) (A) (A) (A) (A) (A) (A) (A)
                 (A) (A) (A) (A) (A) (A) (A) (A) (A) (A) (A) (A)
                 (A) (A) (A) (A) (A) (A) (A) (A) (A) (A) (A) (A)
                 (A) (A) (A) (A) (A) (A) (A) (A) (A) (A) (A) (A)
                 (A) (A) (A) (A) (A) (A) (A) (A) (A) (A) (A) (A)
                 (A) (A) (A) (A) (A) (A) (A) (A) (A) (A) (A) (A)
                 (A) (A) (A) (A) (A) (A) (A) (A) (A) (A) (A) (A)
                 (A) (A) (A) (A) (A) (A) (A) (A) (A) (A) (A) (A)
                 (A) (A) (A) (A) (A) (A) (A) (A) (A) (A) (A) (A)
                 (A) (A) (A) (A) (A) (A) (A) (A) (A) (A) (A) (A)
                 (A) (A) (A) (A) (A) (A) (A) (A) (A) (A) (A) (A)
                 (A) (A) (A) (A) (A) (A) (A) (A) (A) (A) (A) (A)
                 (A) (A) (A) (A) (A) (A) (A) (A) (A) (A) (A) (A)
                 (A) (A) (A) (A) (A) (A) (A) (A) (A) (A) (A) (A)
                 (A) (A) (A) (A) (A) (A) (A) (A) (A) (A) (A) (A)
                 (A) (A) (A) (A) (A) (A) (A) (A) (A) (A) (A) (A)
 The electronic state of the initial guess is 1-A.
 Requested convergence on RMS density matrix=1.00D-08 within 128 cycles.
 Requested convergence on MAX density matrix=1.00D-06.
 Requested convergence on             energy=1.00D-06.
 No special actions if energy rises.
 Integral accuracy reduced to 1.0D-05 until final iterations.
 Initial convergence to 1.0D-05 achieved.  Increase integral accuracy.
 SCF Done:  E(RHF) =  -1295.59640073     A.U. after   14 cycles
             Convg  =    0.6722D-08             -V/T =  2.0011

 **********************************************************************

            Population analysis using the SCF density.

 **********************************************************************

 Orbital symmetries:
       Occupied  (A) (A) (A) (A) (A) (A) (A) (A) (A) (A) (A) (A)
                 (A) (A) (A) (A) (A) (A) (A) (A) (A) (A) (A) (A)
                 (A) (A) (A) (A) (A) (A) (A) (A) (A) (A) (A) (A)
                 (A) (A) (A) (A) (A) (A) (A) (A) (A) (A) (A) (A)
                 (A) (A) (A) (A) (A) (A) (A) (A) (A) (A) (A) (A)
                 (A) (A) (A) (A) (A) (A) (A) (A) (A) (A) (A) (A)
                 (A) (A) (A) (A) (A) (A) (A) (A) (A) (A) (A) (A)
                 (A) (A) (A) (A) (A) (A) (A) (A) (A) (A) (A) (A)
                 (A) (A) (A) (A) (A) (A) (A) (A) (A) (A) (A) (A)
       Virtual   (A) (A) (A) (A) (A) (A) (A) (A) (A) (A) (A) (A)
                 (A) (A) (A) (A) (A) (A) (A) (A) (A) (A) (A) (A)
                 (A) (A) (A) (A) (A) (A) (A) (A) (A) (A) (A) (A)
                 (A) (A) (A) (A) (A) (A) (A) (A) (A) (A) (A) (A)
                 (A) (A) (A) (A) (A) (A) (A) (A) (A) (A) (A) (A)
                 (A) (A) (A) (A) (A) (A) (A) (A) (A) (A) (A) (A)
                 (A) (A) (A) (A) (A) (A) (A) (A) (A) (A) (A) (A)
                 (A) (A) (A) (A) (A) (A) (A) (A) (A) (A) (A) (A)
                 (A) (A) (A) (A) (A) (A) (A) (A) (A) (A) (A) (A)
                 (A) (A) (A) (A) (A) (A) (A) (A) (A) (A) (A) (A)
                 (A) (A) (A) (A) (A) (A) (A) (A) (A) (A) (A) (A)
                 (A) (A) (A) (A) (A) (A) (A) (A) (A) (A) (A) (A)
                 (A) (A) (A) (A) (A) (A) (A) (A) (A) (A) (A) (A)
                 (A) (A) (A) (A) (A) (A) (A) (A) (A) (A) (A) (A)
                 (A) (A) (A) (A) (A) (A) (A) (A) (A) (A) (A) (A)
                 (A) (A) (A) (A) (A) (A) (A) (A) (A) (A) (A) (A)
                 (A) (A) (A) (A) (A) (A) (A) (A) (A) (A) (A) (A)
                 (A) (A) (A) (A) (A) (A) (A) (A) (A) (A) (A) (A)
                 (A) (A) (A) (A) (A) (A) (A) (A) (A) (A) (A) (A)
                 (A) (A) (A) (A) (A) (A) (A) (A) (A) (A) (A) (A)
                 (A) (A) (A) (A) (A) (A) (A) (A) (A) (A) (A) (A)
                 (A) (A) (A) (A) (A) (A) (A) (A) (A) (A) (A) (A)
                 (A) (A) (A) (A) (A) (A) (A) (A) (A) (A) (A) (A)
                 (A) (A) (A) (A) (A) (A) (A) (A) (A) (A) (A) (A)
                 (A) (A) (A) (A) (A) (A) (A) (A) (A) (A) (A) (A)
                 (A) (A) (A) (A) (A) (A) (A) (A) (A) (A) (A) (A)
                 (A) (A) (A) (A) (A) (A) (A) (A) (A) (A) (A) (A)
                 (A) (A) (A) (A) (A) (A) (A) (A) (A) (A) (A) (A)
                 (A) (A) (A) (A) (A) (A) (A) (A) (A) (A) (A) (A)
                 (A) (A) (A) (A) (A) (A) (A) (A) (A) (A) (A) (A)
                 (A) (A) (A) (A) (A) (A) (A) (A) (A) (A) (A) (A)
                 (A) (A) (A) (A) (A) (A) (A) (A) (A) (A) (A) (A)
 The electronic state is 1-A.
 Alpha  occ. eigenvalues --  -20.53812 -20.52425 -20.52172 -20.52014 -15.59798
 Alpha  occ. eigenvalues --  -15.58595 -15.57919 -15.57682 -11.36130 -11.34614
 Alpha  occ. eigenvalues --  -11.34263 -11.34031 -11.29219 -11.29058 -11.25711
 Alpha  occ. eigenvalues --  -11.24997 -11.24512 -11.24286 -11.23534 -11.22784
 Alpha  occ. eigenvalues --  -11.22710 -11.22643 -11.22450 -11.22382 -11.22186
 Alpha  occ. eigenvalues --  -11.22145 -11.21877 -11.21035  -1.40748  -1.39844
 Alpha  occ. eigenvalues --   -1.38869  -1.38572  -1.25619  -1.23981  -1.23283
 Alpha  occ. eigenvalues --   -1.22230  -1.11454  -1.09282  -1.07514  -1.04512
 Alpha  occ. eigenvalues --   -1.01578  -0.99742  -0.99049  -0.95707  -0.95644
 Alpha  occ. eigenvalues --   -0.95219  -0.92310  -0.87529  -0.86409  -0.83744
 Alpha  occ. eigenvalues --   -0.81564  -0.80081  -0.78657  -0.77449  -0.77335
 Alpha  occ. eigenvalues --   -0.72251  -0.71724  -0.71298  -0.69122  -0.68679
 Alpha  occ. eigenvalues --   -0.66644  -0.66098  -0.64942  -0.64652  -0.64026
 Alpha  occ. eigenvalues --   -0.62914  -0.62698  -0.62351  -0.61867  -0.61539
 Alpha  occ. eigenvalues --   -0.61082  -0.60917  -0.59566  -0.59356  -0.58724
 Alpha  occ. eigenvalues --   -0.58363  -0.57871  -0.57112  -0.56922  -0.56432
 Alpha  occ. eigenvalues --   -0.55938  -0.55482  -0.55228  -0.54673  -0.53966
 Alpha  occ. eigenvalues --   -0.53603  -0.53394  -0.52856  -0.52281  -0.51903
 Alpha  occ. eigenvalues --   -0.51120  -0.50363  -0.50166  -0.49952  -0.49155
 Alpha  occ. eigenvalues --   -0.48172  -0.47057  -0.45567  -0.44737  -0.43033
 Alpha  occ. eigenvalues --   -0.42200  -0.41737  -0.41436  -0.39463  -0.39362
 Alpha  occ. eigenvalues --   -0.38837  -0.38464  -0.34698
 Alpha virt. eigenvalues --    0.17310   0.18491   0.18864   0.19258   0.19749
 Alpha virt. eigenvalues --    0.21058   0.21587   0.22815   0.23136   0.24029
 Alpha virt. eigenvalues --    0.24717   0.25431   0.25850   0.26680   0.26948
 Alpha virt. eigenvalues --    0.27851   0.28166   0.28457   0.28728   0.29119
 Alpha virt. eigenvalues --    0.29314   0.30221   0.30799   0.30852   0.31450
 Alpha virt. eigenvalues --    0.32245   0.32556   0.32788   0.33362   0.33448
 Alpha virt. eigenvalues --    0.33806   0.33870   0.34450   0.34949   0.35687
 Alpha virt. eigenvalues --    0.36282   0.36782   0.37180   0.37501   0.37817
 Alpha virt. eigenvalues --    0.38351   0.38681   0.39369   0.39927   0.40483
 Alpha virt. eigenvalues --    0.41773   0.42297   0.42824   0.43056   0.43789
 Alpha virt. eigenvalues --    0.44385   0.45096   0.45253   0.47446   0.47858
 Alpha virt. eigenvalues --    0.48286   0.48891   0.50539   0.52069   0.52960
 Alpha virt. eigenvalues --    0.54422   0.55432   0.57367   0.58989   0.59384
 Alpha virt. eigenvalues --    0.62667   0.63371   0.64161   0.68268   0.70166
 Alpha virt. eigenvalues --    0.71143   0.71221   0.71655   0.72983   0.73132
 Alpha virt. eigenvalues --    0.73761   0.74143   0.74842   0.75888   0.76487
 Alpha virt. eigenvalues --    0.76710   0.77394   0.77697   0.78851   0.79684
 Alpha virt. eigenvalues --    0.79986   0.80715   0.81302   0.82191   0.82941
 Alpha virt. eigenvalues --    0.83372   0.83548   0.84898   0.85009   0.86024
 Alpha virt. eigenvalues --    0.86383   0.88971   0.89387   0.90334   0.91546
 Alpha virt. eigenvalues --    0.92179   0.92533   0.92915   0.93522   0.94402
 Alpha virt. eigenvalues --    0.95420   0.96332   0.97039   0.97449   0.98133
 Alpha virt. eigenvalues --    0.98550   0.99120   0.99859   1.00258   1.00559
 Alpha virt. eigenvalues --    1.01521   1.02161   1.02702   1.03121   1.03626
 Alpha virt. eigenvalues --    1.04243   1.05330   1.05643   1.06305   1.07268
 Alpha virt. eigenvalues --    1.07964   1.08585   1.09846   1.10711   1.11372
 Alpha virt. eigenvalues --    1.11945   1.12594   1.13148   1.13385   1.13800
 Alpha virt. eigenvalues --    1.14067   1.14434   1.15233   1.15492   1.15907
 Alpha virt. eigenvalues --    1.16394   1.16987   1.17786   1.17961   1.17996
 Alpha virt. eigenvalues --    1.18196   1.18435   1.19016   1.19454   1.19630
 Alpha virt. eigenvalues --    1.20150   1.20548   1.21209   1.21692   1.21847
 Alpha virt. eigenvalues --    1.22394   1.22653   1.22738   1.22831   1.23979
 Alpha virt. eigenvalues --    1.24512   1.24618   1.25995   1.26026   1.26394
 Alpha virt. eigenvalues --    1.26897   1.27641   1.28580   1.28757   1.30796
 Alpha virt. eigenvalues --    1.31237   1.31743   1.32335   1.33731   1.34249
 Alpha virt. eigenvalues --    1.34756   1.36369   1.37519   1.37857   1.39041
 Alpha virt. eigenvalues --    1.39707   1.41055   1.42445   1.43855   1.44375
 Alpha virt. eigenvalues --    1.45009   1.46158   1.46793   1.47930   1.49683
 Alpha virt. eigenvalues --    1.51372   1.53477   1.54312   1.55124   1.56576
 Alpha virt. eigenvalues --    1.57948   1.59445   1.60126   1.60413   1.61760
 Alpha virt. eigenvalues --    1.63175   1.64169   1.66353   1.67287   1.67922
 Alpha virt. eigenvalues --    1.69387   1.71904   1.72228   1.73379   1.73390
 Alpha virt. eigenvalues --    1.74067   1.77238   1.78918   1.80364   1.80484
 Alpha virt. eigenvalues --    1.81298   1.82752   1.83960   1.85185   1.89246
 Alpha virt. eigenvalues --    1.90558   1.91641   1.93137   1.94757   1.95193
 Alpha virt. eigenvalues --    1.96225   1.96570   1.98376   1.99996   2.00915
 Alpha virt. eigenvalues --    2.03531   2.05970   2.06668   2.07804   2.08625
 Alpha virt. eigenvalues --    2.09834   2.11263   2.11797   2.12048   2.12574
 Alpha virt. eigenvalues --    2.12807   2.13299   2.14838   2.15525   2.16058
 Alpha virt. eigenvalues --    2.16408   2.16528   2.18870   2.19045   2.20071
 Alpha virt. eigenvalues --    2.20336   2.21434   2.21973   2.23099   2.23517
 Alpha virt. eigenvalues --    2.25006   2.26129   2.26344   2.27474   2.27869
 Alpha virt. eigenvalues --    2.29067   2.29863   2.31384   2.31717   2.32500
 Alpha virt. eigenvalues --    2.32908   2.34163   2.34807   2.35624   2.35776
 Alpha virt. eigenvalues --    2.37446   2.37975   2.38478   2.38852   2.40612
 Alpha virt. eigenvalues --    2.41249   2.41884   2.43674   2.44723   2.45694
 Alpha virt. eigenvalues --    2.45860   2.47618   2.48179   2.50404   2.51621
 Alpha virt. eigenvalues --    2.52826   2.53237   2.54449   2.55015   2.55519
 Alpha virt. eigenvalues --    2.56434   2.56821   2.57901   2.58003   2.61990
 Alpha virt. eigenvalues --    2.62274   2.62950   2.63493   2.64632   2.65364
 Alpha virt. eigenvalues --    2.66360   2.69768   2.70093   2.70425   2.71018
 Alpha virt. eigenvalues --    2.71394   2.73221   2.73860   2.74721   2.76650
 Alpha virt. eigenvalues --    2.77045   2.78346   2.78649   2.79576   2.81386
 Alpha virt. eigenvalues --    2.81654   2.82942   2.84491   2.85361   2.86815
 Alpha virt. eigenvalues --    2.87885   2.88229   2.90271   2.93080   2.95837
 Alpha virt. eigenvalues --    2.97155   2.97648   2.98236   2.98767   3.02188
 Alpha virt. eigenvalues --    3.03408   3.04883   3.05822   3.06632   3.08198
 Alpha virt. eigenvalues --    3.11358   3.11691   3.12770   3.14328   3.15904
 Alpha virt. eigenvalues --    3.17205   3.20272   3.21870   3.29479   3.30554
 Alpha virt. eigenvalues --    3.34141   3.34519   3.38635   3.40024   3.40665
 Alpha virt. eigenvalues --    3.42372   3.42947   3.53128   3.55227   3.57307
 Alpha virt. eigenvalues --    3.60031   4.38538   4.40866   4.44709   4.47338
 Alpha virt. eigenvalues --    4.49268   4.51670   4.56898   4.58862   4.62108
 Alpha virt. eigenvalues --    4.63895   4.66587   4.68011   4.68598   4.70392
 Alpha virt. eigenvalues --    4.71850   4.76633   4.79208   4.82792   4.85504
 Alpha virt. eigenvalues --    4.87855   4.89254   4.93990   4.97392   4.99509
 Alpha virt. eigenvalues --    5.04603   5.14210   5.22295   5.26239
          Condensed to atoms (all electrons):
 Mulliken atomic charges:
              1
     1  C   -0.280008
     2  N   -0.783556
     3  C    0.822215
     4  O   -0.628555
     5  C    0.104286
     6  C   -0.472473
     7  C   -0.333047
     8  C   -0.317691
     9  C   -0.375244
    10  C   -0.180542
    11  C   -0.180124
    12  C   -0.356357
    13  C   -0.301729
    14  C   -0.360313
    15  C    0.103528
    16  C   -0.518932
    17  N   -0.788378
    18  C    0.767103
    19  C   -0.595915
    20  O   -0.614599
    21  C    0.820031
    22  O   -0.638540
    23  N   -0.808756
    24  C   -0.275035
    25  N   -0.843213
    26  C    0.744824
    27  C   -0.588858
    28  O   -0.591270
    29  H    0.187154
    30  H    0.198335
    31  H    0.163393
    32  H    0.391397
    33  H    0.199150
    34  H    0.143336
    35  H    0.213086
    36  H    0.154570
    37  H    0.181464
    38  H    0.164150
    39  H    0.178090
    40  H    0.216266
    41  H    0.169463
    42  H    0.183669
    43  H    0.175120
    44  H    0.177496
    45  H    0.168793
    46  H    0.152973
    47  H    0.191777
    48  H    0.188026
    49  H    0.197927
    50  H    0.189827
    51  H    0.143172
    52  H    0.231153
    53  H    0.391207
    54  H    0.211959
    55  H    0.209420
    56  H    0.178093
    57  H    0.393579
    58  H    0.162470
    59  H    0.198700
    60  H    0.187274
    61  H    0.381122
    62  H    0.219383
    63  H    0.176791
    64  H    0.201366
 Sum of Mulliken atomic charges =   0.00000
 Mulliken charges with hydrogens summed into heavy atoms:
              1
     1  C    0.268873
     2  N   -0.392159
     3  C    0.822215
     4  O   -0.628555
     5  C    0.104286
     6  C    0.083099
     7  C    0.002986
     8  C    0.024548
     9  C    0.010484
    10  C    0.003128
    11  C   -0.005004
    12  C   -0.010068
    13  C    0.043021
    14  C    0.025640
    15  C    0.103528
    16  C    0.045220
    17  N   -0.397171
    18  C    0.767103
    19  C    0.003558
    20  O   -0.614599
    21  C    0.820031
    22  O   -0.638540
    23  N   -0.415178
    24  C    0.273409
    25  N   -0.462092
    26  C    0.744824
    27  C    0.008683
    28  O   -0.591270
 Sum of Mulliken charges with hydrogens summed into heavy atoms =   0.00000
 Electronic spatial extent (au):  <R**2>=          15517.0955
 Charge=              0.0000 electrons
 Dipole moment (field-independent basis, Debye):
    X=             -0.0852    Y=             -1.8405    Z=              3.8252  Tot=              4.2458
 Quadrupole moment (field-independent basis, Debye-Ang):
   XX=           -210.8131   YY=           -162.4780   ZZ=           -171.3133
   XY=             22.8320   XZ=            -28.4142   YZ=             -7.3294
 Traceless Quadrupole moment (field-independent basis, Debye-Ang):
   XX=            -29.2783   YY=             19.0568   ZZ=             10.2215
   XY=             22.8320   XZ=            -28.4142   YZ=             -7.3294
 Octapole moment (field-independent basis, Debye-Ang**2):
  XXX=             63.0624  YYY=            -53.0008  ZZZ=             19.0622  XYY=            -39.0990
  XXY=             62.1664  XXZ=             67.3744  XZZ=             12.3797  YZZ=            -17.1360
  YYZ=             36.1536  XYZ=            -38.6383
 Hexadecapole moment (field-independent basis, Debye-Ang**3):
 XXXX=         -16267.9999 YYYY=          -3344.4176 ZZZZ=          -1832.2730 XXXY=            363.3655
 XXXZ=           -913.2431 YYYX=            152.6972 YYYZ=            -74.1404 ZZZX=            -21.5318
 ZZZY=            -23.4690 XXYY=          -2978.8497 XXZZ=          -2813.6215 YYZZ=           -858.6764
 XXYZ=           -162.9853 YYXZ=             15.2256 ZZXY=             15.5781
 N-N= 2.847527553430D+03 E-N=-8.726495697944D+03  KE= 1.294145769770D+03
 1\1\GINC-MOSURA\SP\RHF\6-31G(d)\C20H36N4O4\MARIE\05-Dec-2019\0\\#SP HF
 /6-31G* Geom=(ModRedundant)\\paramfit run\\0,1\C,0,0.,0.,0.\N,0,1.4481
 87,0.,0.\C,0,2.1232,0.47592,1.072365\O,0,1.590179,0.696732,2.124447\C,
 0,3.650505,0.594143,0.921539\C,0,4.198902,1.549248,1.986845\C,0,4.3077
 51,-0.809116,1.023981\C,0,4.133566,-1.622781,2.319066\C,0,2.832729,-2.
 433298,2.484965\C,0,2.579342,-3.423586,1.372579\C,0,2.834093,-4.721989
 ,1.375535\C,0,3.442731,-5.535663,2.492337\C,0,4.978636,-5.627077,2.445
 373\C,0,5.657453,-4.255634,2.560541\C,0,7.200865,-4.216916,2.705546\C,
 0,7.627711,-2.740368,2.738082\N,0,7.564779,-4.854904,3.963349\C,0,8.86
 8048,-5.094738,4.2905\C,0,9.071346,-6.082884,5.416129\O,0,9.787895,-4.
 564886,3.731679\C,0,7.823859,-5.033379,1.55056\O,0,7.924125,-6.227629,
 1.637984\N,0,8.146713,-4.367066,0.421059\C,0,8.780905,-5.062216,-0.680
 198\N,0,3.997412,1.070275,-0.425452\C,0,3.587019,2.267163,-0.934086\C,
 0,4.328148,2.727659,-2.172145\O,0,2.697134,2.905425,-0.447397\H,0,-0.4
 03259,1.006147,0.\H,0,-0.36496,-0.516002,0.875939\H,0,-0.345658,-0.522
 086,-0.883346\H,0,1.904244,0.070913,-0.879357\H,0,3.932135,1.22176,2.9
 80082\H,0,5.28092,1.595925,1.9075\H,0,3.792711,2.540594,1.848395\H,0,5
 .374584,-0.64325,0.891407\H,0,3.984642,-1.403324,0.174983\H,0,4.961565
 ,-2.324757,2.354635\H,0,4.250121,-0.975721,3.182259\H,0,1.985724,-1.76
 4045,2.562723\H,0,2.895638,-2.94811,3.437249\H,0,2.135502,-3.009181,0.
 481856\H,0,2.579482,-5.276386,0.485828\H,0,3.042757,-6.542358,2.485108
 \H,0,3.14259,-5.097092,3.443213\H,0,5.295399,-6.283867,3.250769\H,0,5.
 279815,-6.114749,1.527605\H,0,5.252541,-3.723282,3.418551\H,0,5.405036
 ,-3.669797,1.68451\H,0,7.225354,-2.282592,3.634259\H,0,7.228106,-2.196
 883,1.888188\H,0,8.702149,-2.636228,2.759945\H,0,6.920888,-5.535633,4.
 296104\H,0,10.05028,-5.932941,5.845392\H,0,9.0203,-7.087737,5.007731\H
 ,0,8.313211,-5.986629,6.185772\H,0,8.27588,-3.384227,0.472564\H,0,8.84
 4132,-4.38772,-1.523986\H,0,8.188264,-5.921021,-0.959225\H,0,9.777845,
 -5.403374,-0.420432\H,0,4.82812,0.684785,-0.816437\H,0,3.710173,3.4346
 04,-2.706288\H,0,4.588171,1.902533,-2.825678\H,0,5.244771,3.226201,-1.
 873716\\Version=EM64L-G09RevA.02\State=1-A\HF=-1295.5964007\RMSD=6.722
 e-09\Dipole=0.4095154,-0.3111948,-1.5892712\Quadrupole=-14.0025505,-10
 .5068993,24.5094498,22.3668944,0.1960113,-13.2808002\PG=C01 [X(C20H36N
 4O4)]\\@


 MEMORIES ARE LIKE AN ENGLISH GRAMMER LESSON -
 PRESENT TENSE, AND PAST PERFECT.
 Job cpu time:  0 days  0 hours  6 minutes 51.9 seconds.
 File lengths (MBytes):  RWF=    132 Int=      0 D2E=      0 Chk=     10 Scr=      1
 Normal termination of Gaussian 09 at Thu Dec  5 19:00:52 2019.
