 Entering Gaussian System, Link 0=g09
 Input=CHI6_110.gau
 Output=CHI6_110.log
 Initial command:
 /home/marie/Utilities//g09/l1.exe /tmp/g09/Gau-11721.inp -scrdir=/tmp/g09/
 Entering Link 1 = /home/marie/Utilities//g09/l1.exe PID=     11723.
  
 Copyright (c) 1988,1990,1992,1993,1995,1998,2003,2009, Gaussian, Inc.
                  All Rights Reserved.
  
 This is part of the Gaussian(R) 09 program.  It is based on
 the Gaussian(R) 03 system (copyright 2003, Gaussian, Inc.),
 the Gaussian(R) 98 system (copyright 1998, Gaussian, Inc.),
 the Gaussian(R) 94 system (copyright 1995, Gaussian, Inc.),
 the Gaussian 92(TM) system (copyright 1992, Gaussian, Inc.),
 the Gaussian 90(TM) system (copyright 1990, Gaussian, Inc.),
 the Gaussian 88(TM) system (copyright 1988, Gaussian, Inc.),
 the Gaussian 86(TM) system (copyright 1986, Carnegie Mellon
 University), and the Gaussian 82(TM) system (copyright 1983,
 Carnegie Mellon University). Gaussian is a federally registered
 trademark of Gaussian, Inc.
  
 This software contains proprietary and confidential information,
 including trade secrets, belonging to Gaussian, Inc.
  
 This software is provided under written license and may be
 used, copied, transmitted, or stored only in accord with that
 written license.
  
 The following legend is applicable only to US Government
 contracts under FAR:
  
                    RESTRICTED RIGHTS LEGEND
  
 Use, reproduction and disclosure by the US Government is
 subject to restrictions as set forth in subparagraphs (a)
 and (c) of the Commercial Computer Software - Restricted
 Rights clause in FAR 52.227-19.
  
 Gaussian, Inc.
 340 Quinnipiac St., Bldg. 40, Wallingford CT 06492
  
  
 ---------------------------------------------------------------
 Warning -- This program may not be used in any manner that
 competes with the business of Gaussian, Inc. or will provide
 assistance to any competitor of Gaussian, Inc.  The licensee
 of this program is prohibited from giving any competitor of
 Gaussian, Inc. access to this program.  By using this program,
 the user acknowledges that Gaussian, Inc. is engaged in the
 business of creating and licensing software in the field of
 computational chemistry and represents and warrants to the
 licensee that it is not a competitor of Gaussian, Inc. and that
 it will not use this program in any manner prohibited above.
 ---------------------------------------------------------------
  

 Cite this work as:
 Gaussian 09, Revision A.02,
 M. J. Frisch, G. W. Trucks, H. B. Schlegel, G. E. Scuseria, 
 M. A. Robb, J. R. Cheeseman, G. Scalmani, V. Barone, B. Mennucci, 
 G. A. Petersson, H. Nakatsuji, M. Caricato, X. Li, H. P. Hratchian, 
 A. F. Izmaylov, J. Bloino, G. Zheng, J. L. Sonnenberg, M. Hada, 
 M. Ehara, K. Toyota, R. Fukuda, J. Hasegawa, M. Ishida, T. Nakajima, 
 Y. Honda, O. Kitao, H. Nakai, T. Vreven, J. A. Montgomery, Jr., 
 J. E. Peralta, F. Ogliaro, M. Bearpark, J. J. Heyd, E. Brothers, 
 K. N. Kudin, V. N. Staroverov, R. Kobayashi, J. Normand, 
 K. Raghavachari, A. Rendell, J. C. Burant, S. S. Iyengar, J. Tomasi, 
 M. Cossi, N. Rega, J. M. Millam, M. Klene, J. E. Knox, J. B. Cross, 
 V. Bakken, C. Adamo, J. Jaramillo, R. Gomperts, R. E. Stratmann, 
 O. Yazyev, A. J. Austin, R. Cammi, C. Pomelli, J. W. Ochterski, 
 R. L. Martin, K. Morokuma, V. G. Zakrzewski, G. A. Voth, 
 P. Salvador, J. J. Dannenberg, S. Dapprich, A. D. Daniels, 
 O. Farkas, J. B. Foresman, J. V. Ortiz, J. Cioslowski, 
 and D. J. Fox, Gaussian, Inc., Wallingford CT, 2009.
 
 ******************************************
 Gaussian 09:  EM64L-G09RevA.02 11-Jun-2009
                 5-Dec-2019 
 ******************************************
 %chk=CHI6_110
 %NoSave
 ---------------------------------
 #SP HF/6-31G* Geom=(ModRedundant)
 ---------------------------------
 1/18=120,38=1/1;
 2/12=2,17=6,18=5,40=1/2;
 3/5=1,6=6,7=1,11=9,16=1,25=1,30=1/1,2,3;
 4//1;
 5/5=2,38=5/2;
 6/7=2,8=2,9=2,10=2,28=1/1;
 99/5=1,9=1/99;
 ------------
 paramfit run
 ------------
 Symbolic Z-matrix:
 Charge =  0 Multiplicity = 1
 C-CT--0.3208          0.        0.        0. 
 N-N--0.5622           1.44819   0.        0. 
 C-C-0.8053            2.1232    0.47592   1.07237 
 O-O--0.6151           1.59018   0.69673   2.12445 
 C-CX-0.0839           3.65051   0.59414   0.92154 
 C-CU--0.3230          4.1989    1.54925   1.98685 
 C-CU--0.0657          4.30775  -0.80912   1.02398 
 C-CU--0.0109          4.13357  -1.62278   2.31907 
 C-CU-0.0816           2.83273  -2.4333    2.48497 
 C-CM--0.2354          2.57934  -3.42359   1.37258 
 C-CM--0.2653          2.83409  -4.72199   1.37554 
 C-CU-0.1214           3.44273  -5.53566   2.49234 
 C-CU--0.0354          2.46312  -6.50714   3.17509 
 C-CU--0.0984          1.8961   -7.55425   2.20712 
 C-CU-0.1300           1.03629  -8.70173   2.79761 
 C-CU--0.3561          0.54592  -9.56599   1.62456 
 N-N--0.7186           1.87572  -9.50608   3.67506 
 C-C-0.8537            1.3517   -10.5025   4.44682 
 C-CT--0.3868          2.24959  -10.98277   5.56393 
 O-O--0.6323           0.26185  -10.9672   4.25865 
 C-C-0.7903           -0.09614  -8.08078   3.64656 
 O-O--0.6136           0.109    -7.75444   4.7847 
 N-N--0.5650          -1.27138  -7.83172   3.0295 
 C-CT--0.3231         -2.39026  -7.29812   3.77888 
 N-N--0.7191           3.99741   1.07028  -0.42545 
 C-C-0.8539            3.58702   2.26716  -0.93409 
 C-CT--0.3903          4.32815   2.72766  -2.17214 
 O-O--0.6290           2.69713   2.90543  -0.4474 
 H-H1-0.1459          -0.40326   1.00615   0. 
 H-H1-0.1459          -0.36496  -0.516     0.87594 
 H-H1-0.1459          -0.34566  -0.52209  -0.88335 
 H-H-0.3572            1.90424   0.07091  -0.87936 
 H-HC-0.0997           3.93214   1.22176   2.98008 
 H-HC-0.0997           5.28092   1.59593   1.9075 
 H-HC-0.0997           3.79271   2.54059   1.8484 
 H-HC-0.0347           5.37458  -0.64325   0.89141 
 H-HC-0.0347           3.98464  -1.40332   0.17498 
 H-HC-0.0243           4.96157  -2.32476   2.35464 
 H-HC-0.0243           4.25012  -0.97572   3.18226 
 H-HC-0.0171           1.98572  -1.76405   2.56272 
 H-HC-0.0171           2.89564  -2.94811   3.43725 
 H-HA-0.1313           2.1355   -3.00918   0.48186 
 H-HA-0.1359           2.57948  -5.27639   0.48583 
 H-HC-0.0092           3.85651  -4.88245   3.25099 
 H-HC-0.0092           4.28151  -6.10242   2.09006 
 H-HC-0.0318           2.99013  -6.98521   3.99612 
 H-HC-0.0318           1.65721  -5.94364   3.62653 
 H-HC-0.0435           2.7137   -8.02666   1.66684 
 H-HC-0.0435           1.28699  -7.048     1.4675 
 H-HC-0.1066           1.40358  -10.0363   1.15787 
 H-HC-0.1066           0.05579  -8.96115   0.86871 
 H-HC-0.1066          -0.12594  -10.34361   1.95569 
 H-H-0.3529            2.64623  -9.02706   4.08195 
 H-HC-0.1047           1.94036  -11.97205   5.86521 
 H-HC-0.1047           2.1392   -10.31069   6.40965 
 H-HC-0.1047           3.29381  -10.99671   5.27104 
 H-H-0.3615           -1.47826  -8.32147   2.19125 
 H-H1-0.1469          -3.18684  -7.05857   3.08677 
 H-H1-0.1469          -2.08835  -6.39797   4.29386 
 H-H1-0.1469          -2.7573   -8.00702   4.51406 
 H-H-0.3570            4.82812   0.68479  -0.81644 
 H-HC-0.1060           3.71017   3.4346   -2.70629 
 H-HC-0.1060           4.58817   1.90253  -2.82568 
 H-HC-0.1060           5.24477   3.2262   -1.87372 
 
 The following ModRedundant input section has been read:
 D    *   11   12    * F                                                       
 Stoichiometry    C20H36N4O4
 Framework group  C1[X(C20H36N4O4)]
 Deg. of freedom   186
 Full point group                 C1      NOp   1
 Largest Abelian subgroup         C1      NOp   1
 Largest concise Abelian subgroup C1      NOp   1
                         Standard orientation:                         
 ---------------------------------------------------------------------
 Center     Atomic      Atomic             Coordinates (Angstroms)
 Number     Number       Type             X           Y           Z
 ---------------------------------------------------------------------
      1          6    20001001       -3.878703    2.936369    0.340858
      2          7    20001014       -4.193871    1.527393    0.453556
      3          6    20001002       -4.433917    0.798126   -0.661189
      4          8    20001024       -4.182542    1.201632   -1.762888
      5          6    90000001       -4.923803   -0.644578   -0.442093
      6          6    90000002       -5.580073   -1.164096   -1.725547
      7          6    90000002       -3.740928   -1.549524   -0.002228
      8          6    90000002       -2.536252   -1.715455   -0.946082
      9          6    90000002       -1.452939   -0.618860   -0.922610
     10          6    20001004       -0.843618   -0.385731    0.439981
     11          6    20001004        0.298202   -0.865756    0.905365
     12          6    90000002        1.275105   -1.767136    0.189175
     13          6    90000002        2.603270   -1.087697   -0.190173
     14          6    90000002        3.379711   -0.580774    1.032563
     15          6    90000002        4.814247   -0.035760    0.809606
     16          6    90000002        5.339490    0.459346    2.166971
     17          7    20001014        5.655250   -1.124864    0.332012
     18          6    20001002        6.935904   -0.906204   -0.086521
     19          6    20001001        7.542776   -2.029541   -0.895610
     20          8    20001024        7.540650    0.098835    0.165116
     21          6    20001002        4.761981    1.052178   -0.286928
     22          8    20001024        4.783189    0.743702   -1.448101
     23          7    20001014        4.589542    2.330659    0.112738
     24          6    20001001        4.582735    3.404441   -0.859448
     25          7    20001014       -5.871792   -0.699312    0.680293
     26          6    20001002       -7.049060   -0.011721    0.710793
     27          6    20001001       -8.033355   -0.468791    1.767377
     28          8    20001024       -7.286732    0.896518   -0.034025
     29          1    20001035       -4.717975    3.508286   -0.037934
     30          1    20001035       -3.041753    3.070724   -0.328609
     31          1    20001035       -3.606926    3.309203    1.320391
     32          1    20001029       -4.641657    1.225470    1.286992
     33          1    20001034       -4.900407   -1.108854   -2.562168
     34          1    20001034       -5.884112   -2.196835   -1.583252
     35          1    20001034       -6.449658   -0.571638   -1.969969
     36          1    20001034       -4.168621   -2.538400    0.147513
     37          1    20001034       -3.396545   -1.216545    0.971838
     38          1    20001034       -2.058215   -2.651546   -0.672529
     39          1    20001034       -2.879808   -1.840123   -1.967747
     40          1    20001034       -1.860193    0.313240   -1.292334
     41          1    20001034       -0.685615   -0.911788   -1.630594
     42          1    20001033       -1.415702    0.250854    1.095414
     43          1    20001033        0.577887   -0.586337    1.909089
     44          1    20001034        0.827526   -2.164535   -0.713716
     45          1    20001034        1.485205   -2.625288    0.826379
     46          1    20001034        3.193465   -1.806323   -0.751974
     47          1    20001034        2.404847   -0.269324   -0.869678
     48          1    20001034        3.463045   -1.381210    1.764610
     49          1    20001034        2.807630    0.210812    1.502099
     50          1    20001034        5.435868   -0.390505    2.832589
     51          1    20001034        4.645449    1.155151    2.626908
     52          1    20001034        6.308825    0.925597    2.073493
     53          1    20001029        5.177250   -1.848770   -0.153980
     54          1    20001034        8.618590   -1.949498   -0.859860
     55          1    20001034        7.219924   -1.926379   -1.927234
     56          1    20001034        7.234038   -3.004969   -0.535602
     57          1    20001029        4.815846    2.567618    1.049726
     58          1    20001035        4.312489    4.323834   -0.356850
     59          1    20001035        3.853512    3.195734   -1.628409
     60          1    20001035        5.552538    3.527063   -1.330830
     61          1    20001029       -5.823317   -1.518916    1.243719
     62          1    20001034       -8.722244    0.337063    1.974751
     63          1    20001034       -7.540168   -0.773073    2.683744
     64          1    20001034       -8.596071   -1.315439    1.387457
 ---------------------------------------------------------------------
 Rotational constants (GHZ):      0.4166387      0.0479867      0.0461491
 Standard basis: 6-31G(d) (6D, 7F)
 There are   492 symmetry adapted basis functions of A   symmetry.
 Integral buffers will be    131072 words long.
 Raffenetti 1 integral format.
 Two-electron integral symmetry is turned on.
   492 basis functions,   928 primitive gaussians,   492 cartesian basis functions
   108 alpha electrons      108 beta electrons
       nuclear repulsion energy      2674.2627168895 Hartrees.
 NAtoms=   64 NActive=   64 NUniq=   64 SFac= 7.50D-01 NAtFMM=   80 NAOKFM=F Big=T
 One-electron integrals computed using PRISM.
 NBasis=   492 RedAO= T  NBF=   492
 NBsUse=   492 1.00D-06 NBFU=   492
 Harris functional with IExCor=  205 diagonalized for initial guess.
 ExpMin= 1.61D-01 ExpMax= 5.48D+03 ExpMxC= 8.25D+02 IAcc=1 IRadAn=         1 AccDes= 0.00D+00
 HarFok:  IExCor=  205 AccDes= 0.00D+00 IRadAn=         1 IDoV= 1
 ScaDFX=  1.000000  1.000000  1.000000  1.000000
 FoFCou: FMM=F IPFlag=           0 FMFlag=      100000 FMFlg1=           1
         NFxFlg=           0 DoJE=T BraDBF=F KetDBF=T FulRan=T
         Omega=  0.000000  0.000000  1.000000  0.000000  0.000000 ICntrl=     500 IOpCl=  0
         NMat0=    1 NMatS0=    1 NMatT0=    0 NMatD0=    1 NMtDS0=    0 NMtDT0=    0
         I1Cent=           4 NGrid=           0.
 Petite list used in FoFCou.
 Initial guess orbital symmetries:
       Occupied  (A) (A) (A) (A) (A) (A) (A) (A) (A) (A) (A) (A)
                 (A) (A) (A) (A) (A) (A) (A) (A) (A) (A) (A) (A)
                 (A) (A) (A) (A) (A) (A) (A) (A) (A) (A) (A) (A)
                 (A) (A) (A) (A) (A) (A) (A) (A) (A) (A) (A) (A)
                 (A) (A) (A) (A) (A) (A) (A) (A) (A) (A) (A) (A)
                 (A) (A) (A) (A) (A) (A) (A) (A) (A) (A) (A) (A)
                 (A) (A) (A) (A) (A) (A) (A) (A) (A) (A) (A) (A)
                 (A) (A) (A) (A) (A) (A) (A) (A) (A) (A) (A) (A)
                 (A) (A) (A) (A) (A) (A) (A) (A) (A) (A) (A) (A)
       Virtual   (A) (A) (A) (A) (A) (A) (A) (A) (A) (A) (A) (A)
                 (A) (A) (A) (A) (A) (A) (A) (A) (A) (A) (A) (A)
                 (A) (A) (A) (A) (A) (A) (A) (A) (A) (A) (A) (A)
                 (A) (A) (A) (A) (A) (A) (A) (A) (A) (A) (A) (A)
                 (A) (A) (A) (A) (A) (A) (A) (A) (A) (A) (A) (A)
                 (A) (A) (A) (A) (A) (A) (A) (A) (A) (A) (A) (A)
                 (A) (A) (A) (A) (A) (A) (A) (A) (A) (A) (A) (A)
                 (A) (A) (A) (A) (A) (A) (A) (A) (A) (A) (A) (A)
                 (A) (A) (A) (A) (A) (A) (A) (A) (A) (A) (A) (A)
                 (A) (A) (A) (A) (A) (A) (A) (A) (A) (A) (A) (A)
                 (A) (A) (A) (A) (A) (A) (A) (A) (A) (A) (A) (A)
                 (A) (A) (A) (A) (A) (A) (A) (A) (A) (A) (A) (A)
                 (A) (A) (A) (A) (A) (A) (A) (A) (A) (A) (A) (A)
                 (A) (A) (A) (A) (A) (A) (A) (A) (A) (A) (A) (A)
                 (A) (A) (A) (A) (A) (A) (A) (A) (A) (A) (A) (A)
                 (A) (A) (A) (A) (A) (A) (A) (A) (A) (A) (A) (A)
                 (A) (A) (A) (A) (A) (A) (A) (A) (A) (A) (A) (A)
                 (A) (A) (A) (A) (A) (A) (A) (A) (A) (A) (A) (A)
                 (A) (A) (A) (A) (A) (A) (A) (A) (A) (A) (A) (A)
                 (A) (A) (A) (A) (A) (A) (A) (A) (A) (A) (A) (A)
                 (A) (A) (A) (A) (A) (A) (A) (A) (A) (A) (A) (A)
                 (A) (A) (A) (A) (A) (A) (A) (A) (A) (A) (A) (A)
                 (A) (A) (A) (A) (A) (A) (A) (A) (A) (A) (A) (A)
                 (A) (A) (A) (A) (A) (A) (A) (A) (A) (A) (A) (A)
                 (A) (A) (A) (A) (A) (A) (A) (A) (A) (A) (A) (A)
                 (A) (A) (A) (A) (A) (A) (A) (A) (A) (A) (A) (A)
                 (A) (A) (A) (A) (A) (A) (A) (A) (A) (A) (A) (A)
                 (A) (A) (A) (A) (A) (A) (A) (A) (A) (A) (A) (A)
                 (A) (A) (A) (A) (A) (A) (A) (A) (A) (A) (A) (A)
                 (A) (A) (A) (A) (A) (A) (A) (A) (A) (A) (A) (A)
                 (A) (A) (A) (A) (A) (A) (A) (A) (A) (A) (A) (A)
                 (A) (A) (A) (A) (A) (A) (A) (A) (A) (A) (A) (A)
 The electronic state of the initial guess is 1-A.
 Requested convergence on RMS density matrix=1.00D-08 within 128 cycles.
 Requested convergence on MAX density matrix=1.00D-06.
 Requested convergence on             energy=1.00D-06.
 No special actions if energy rises.
 Integral accuracy reduced to 1.0D-05 until final iterations.
 Initial convergence to 1.0D-05 achieved.  Increase integral accuracy.
 SCF Done:  E(RHF) =  -1295.62198220     A.U. after   14 cycles
             Convg  =    0.6066D-08             -V/T =  2.0012

 **********************************************************************

            Population analysis using the SCF density.

 **********************************************************************

 Orbital symmetries:
       Occupied  (A) (A) (A) (A) (A) (A) (A) (A) (A) (A) (A) (A)
                 (A) (A) (A) (A) (A) (A) (A) (A) (A) (A) (A) (A)
                 (A) (A) (A) (A) (A) (A) (A) (A) (A) (A) (A) (A)
                 (A) (A) (A) (A) (A) (A) (A) (A) (A) (A) (A) (A)
                 (A) (A) (A) (A) (A) (A) (A) (A) (A) (A) (A) (A)
                 (A) (A) (A) (A) (A) (A) (A) (A) (A) (A) (A) (A)
                 (A) (A) (A) (A) (A) (A) (A) (A) (A) (A) (A) (A)
                 (A) (A) (A) (A) (A) (A) (A) (A) (A) (A) (A) (A)
                 (A) (A) (A) (A) (A) (A) (A) (A) (A) (A) (A) (A)
       Virtual   (A) (A) (A) (A) (A) (A) (A) (A) (A) (A) (A) (A)
                 (A) (A) (A) (A) (A) (A) (A) (A) (A) (A) (A) (A)
                 (A) (A) (A) (A) (A) (A) (A) (A) (A) (A) (A) (A)
                 (A) (A) (A) (A) (A) (A) (A) (A) (A) (A) (A) (A)
                 (A) (A) (A) (A) (A) (A) (A) (A) (A) (A) (A) (A)
                 (A) (A) (A) (A) (A) (A) (A) (A) (A) (A) (A) (A)
                 (A) (A) (A) (A) (A) (A) (A) (A) (A) (A) (A) (A)
                 (A) (A) (A) (A) (A) (A) (A) (A) (A) (A) (A) (A)
                 (A) (A) (A) (A) (A) (A) (A) (A) (A) (A) (A) (A)
                 (A) (A) (A) (A) (A) (A) (A) (A) (A) (A) (A) (A)
                 (A) (A) (A) (A) (A) (A) (A) (A) (A) (A) (A) (A)
                 (A) (A) (A) (A) (A) (A) (A) (A) (A) (A) (A) (A)
                 (A) (A) (A) (A) (A) (A) (A) (A) (A) (A) (A) (A)
                 (A) (A) (A) (A) (A) (A) (A) (A) (A) (A) (A) (A)
                 (A) (A) (A) (A) (A) (A) (A) (A) (A) (A) (A) (A)
                 (A) (A) (A) (A) (A) (A) (A) (A) (A) (A) (A) (A)
                 (A) (A) (A) (A) (A) (A) (A) (A) (A) (A) (A) (A)
                 (A) (A) (A) (A) (A) (A) (A) (A) (A) (A) (A) (A)
                 (A) (A) (A) (A) (A) (A) (A) (A) (A) (A) (A) (A)
                 (A) (A) (A) (A) (A) (A) (A) (A) (A) (A) (A) (A)
                 (A) (A) (A) (A) (A) (A) (A) (A) (A) (A) (A) (A)
                 (A) (A) (A) (A) (A) (A) (A) (A) (A) (A) (A) (A)
                 (A) (A) (A) (A) (A) (A) (A) (A) (A) (A) (A) (A)
                 (A) (A) (A) (A) (A) (A) (A) (A) (A) (A) (A) (A)
                 (A) (A) (A) (A) (A) (A) (A) (A) (A) (A) (A) (A)
                 (A) (A) (A) (A) (A) (A) (A) (A) (A) (A) (A) (A)
                 (A) (A) (A) (A) (A) (A) (A) (A) (A) (A) (A) (A)
                 (A) (A) (A) (A) (A) (A) (A) (A) (A) (A) (A) (A)
                 (A) (A) (A) (A) (A) (A) (A) (A) (A) (A) (A) (A)
                 (A) (A) (A) (A) (A) (A) (A) (A) (A) (A) (A) (A)
                 (A) (A) (A) (A) (A) (A) (A) (A) (A) (A) (A) (A)
                 (A) (A) (A) (A) (A) (A) (A) (A) (A) (A) (A) (A)
 The electronic state is 1-A.
 Alpha  occ. eigenvalues --  -20.53655 -20.52067 -20.51852 -20.51612 -15.59614
 Alpha  occ. eigenvalues --  -15.57926 -15.57545 -15.57540 -11.35975 -11.34275
 Alpha  occ. eigenvalues --  -11.33865 -11.33701 -11.29031 -11.28597 -11.25006
 Alpha  occ. eigenvalues --  -11.24903 -11.24366 -11.24007 -11.23439 -11.22693
 Alpha  occ. eigenvalues --  -11.22555 -11.22530 -11.22358 -11.22240 -11.22026
 Alpha  occ. eigenvalues --  -11.21836 -11.21586 -11.20858  -1.40592  -1.39387
 Alpha  occ. eigenvalues --   -1.38710  -1.38110  -1.25438  -1.23572  -1.22637
 Alpha  occ. eigenvalues --   -1.22086  -1.10764  -1.09280  -1.07206  -1.04243
 Alpha  occ. eigenvalues --   -1.01251  -0.99330  -0.98756  -0.95524  -0.95142
 Alpha  occ. eigenvalues --   -0.94594  -0.92206  -0.87251  -0.85730  -0.82839
 Alpha  occ. eigenvalues --   -0.81361  -0.79522  -0.78783  -0.77187  -0.76898
 Alpha  occ. eigenvalues --   -0.71938  -0.71320  -0.71119  -0.68964  -0.68006
 Alpha  occ. eigenvalues --   -0.66634  -0.65857  -0.64568  -0.63977  -0.63757
 Alpha  occ. eigenvalues --   -0.62587  -0.62308  -0.61807  -0.61444  -0.61193
 Alpha  occ. eigenvalues --   -0.60932  -0.59902  -0.59359  -0.58731  -0.58457
 Alpha  occ. eigenvalues --   -0.58269  -0.57842  -0.56584  -0.56411  -0.56204
 Alpha  occ. eigenvalues --   -0.55503  -0.54900  -0.54770  -0.54557  -0.53958
 Alpha  occ. eigenvalues --   -0.53104  -0.52825  -0.52518  -0.52159  -0.51554
 Alpha  occ. eigenvalues --   -0.51034  -0.50304  -0.49779  -0.49354  -0.48587
 Alpha  occ. eigenvalues --   -0.48356  -0.46938  -0.46363  -0.44514  -0.42873
 Alpha  occ. eigenvalues --   -0.41947  -0.41525  -0.41083  -0.39292  -0.38859
 Alpha  occ. eigenvalues --   -0.38324  -0.38304  -0.34521
 Alpha virt. eigenvalues --    0.17409   0.18794   0.19636   0.19985   0.20224
 Alpha virt. eigenvalues --    0.21564   0.22007   0.23095   0.23319   0.23990
 Alpha virt. eigenvalues --    0.25294   0.25703   0.26530   0.26939   0.27714
 Alpha virt. eigenvalues --    0.27975   0.28204   0.28858   0.29214   0.29508
 Alpha virt. eigenvalues --    0.29645   0.30267   0.31151   0.31468   0.31614
 Alpha virt. eigenvalues --    0.32081   0.32287   0.32566   0.33266   0.33520
 Alpha virt. eigenvalues --    0.33877   0.34314   0.34671   0.35039   0.35373
 Alpha virt. eigenvalues --    0.35522   0.35880   0.36481   0.36975   0.37352
 Alpha virt. eigenvalues --    0.38314   0.38666   0.39358   0.39588   0.39896
 Alpha virt. eigenvalues --    0.40475   0.41338   0.42048   0.42564   0.43919
 Alpha virt. eigenvalues --    0.44810   0.44989   0.45558   0.45776   0.47063
 Alpha virt. eigenvalues --    0.47306   0.48816   0.49086   0.52188   0.52826
 Alpha virt. eigenvalues --    0.54027   0.55123   0.57717   0.58859   0.59767
 Alpha virt. eigenvalues --    0.62294   0.63326   0.64515   0.69184   0.69946
 Alpha virt. eigenvalues --    0.70943   0.71328   0.71971   0.72665   0.73161
 Alpha virt. eigenvalues --    0.73562   0.74387   0.75072   0.76020   0.76532
 Alpha virt. eigenvalues --    0.76762   0.77171   0.77819   0.78581   0.79234
 Alpha virt. eigenvalues --    0.79625   0.79934   0.80623   0.81152   0.82332
 Alpha virt. eigenvalues --    0.83159   0.83989   0.84765   0.85578   0.86295
 Alpha virt. eigenvalues --    0.87305   0.87927   0.89086   0.89907   0.90592
 Alpha virt. eigenvalues --    0.91394   0.92300   0.92732   0.92967   0.93883
 Alpha virt. eigenvalues --    0.94698   0.95631   0.96828   0.97056   0.97850
 Alpha virt. eigenvalues --    0.98525   0.98866   0.99773   1.00197   1.00393
 Alpha virt. eigenvalues --    1.01468   1.02253   1.02325   1.02989   1.03781
 Alpha virt. eigenvalues --    1.03947   1.04157   1.05690   1.06539   1.06627
 Alpha virt. eigenvalues --    1.07509   1.08129   1.08601   1.10360   1.11033
 Alpha virt. eigenvalues --    1.11968   1.12076   1.12994   1.13621   1.14228
 Alpha virt. eigenvalues --    1.14464   1.14817   1.15016   1.15396   1.16053
 Alpha virt. eigenvalues --    1.16091   1.16663   1.16858   1.17615   1.18091
 Alpha virt. eigenvalues --    1.18266   1.18495   1.18908   1.19109   1.19365
 Alpha virt. eigenvalues --    1.19777   1.20024   1.20518   1.21041   1.21423
 Alpha virt. eigenvalues --    1.21842   1.22161   1.22332   1.22601   1.22684
 Alpha virt. eigenvalues --    1.23117   1.23671   1.24054   1.25332   1.25653
 Alpha virt. eigenvalues --    1.26110   1.26888   1.27341   1.28387   1.29061
 Alpha virt. eigenvalues --    1.29662   1.30460   1.31051   1.32121   1.32635
 Alpha virt. eigenvalues --    1.33493   1.34281   1.35632   1.36217   1.36904
 Alpha virt. eigenvalues --    1.38302   1.38864   1.40485   1.41815   1.42345
 Alpha virt. eigenvalues --    1.43941   1.45301   1.46585   1.47873   1.48380
 Alpha virt. eigenvalues --    1.50831   1.51593   1.53738   1.54334   1.55053
 Alpha virt. eigenvalues --    1.56748   1.58579   1.59854   1.60689   1.61334
 Alpha virt. eigenvalues --    1.61918   1.63738   1.65446   1.66469   1.68463
 Alpha virt. eigenvalues --    1.69445   1.71056   1.71841   1.72521   1.72926
 Alpha virt. eigenvalues --    1.73732   1.74624   1.78083   1.79014   1.79867
 Alpha virt. eigenvalues --    1.80322   1.81454   1.82725   1.86974   1.87801
 Alpha virt. eigenvalues --    1.89497   1.90329   1.91548   1.92993   1.94568
 Alpha virt. eigenvalues --    1.95911   1.96716   1.98483   1.99836   2.01636
 Alpha virt. eigenvalues --    2.04387   2.05575   2.06243   2.07231   2.08323
 Alpha virt. eigenvalues --    2.08790   2.10968   2.11615   2.12049   2.12416
 Alpha virt. eigenvalues --    2.12618   2.13313   2.14355   2.15812   2.16028
 Alpha virt. eigenvalues --    2.16351   2.17981   2.18341   2.19075   2.19170
 Alpha virt. eigenvalues --    2.20043   2.21077   2.21895   2.22995   2.23333
 Alpha virt. eigenvalues --    2.24607   2.25422   2.26139   2.26584   2.27296
 Alpha virt. eigenvalues --    2.28183   2.29341   2.29877   2.31275   2.31523
 Alpha virt. eigenvalues --    2.32849   2.34084   2.34446   2.35138   2.35921
 Alpha virt. eigenvalues --    2.36843   2.37232   2.37722   2.38366   2.39348
 Alpha virt. eigenvalues --    2.39931   2.40907   2.41895   2.43354   2.45072
 Alpha virt. eigenvalues --    2.45594   2.45909   2.47704   2.49161   2.50011
 Alpha virt. eigenvalues --    2.51510   2.52261   2.54443   2.55054   2.55731
 Alpha virt. eigenvalues --    2.56860   2.57131   2.57629   2.59367   2.60447
 Alpha virt. eigenvalues --    2.62411   2.63258   2.64211   2.64478   2.65089
 Alpha virt. eigenvalues --    2.66234   2.68553   2.70035   2.70509   2.71091
 Alpha virt. eigenvalues --    2.72191   2.73653   2.74343   2.75034   2.76505
 Alpha virt. eigenvalues --    2.76653   2.77881   2.78679   2.79451   2.79607
 Alpha virt. eigenvalues --    2.81287   2.82531   2.84049   2.84800   2.86337
 Alpha virt. eigenvalues --    2.87679   2.88412   2.91163   2.91772   2.95747
 Alpha virt. eigenvalues --    2.96493   2.97726   2.98330   2.98690   3.01900
 Alpha virt. eigenvalues --    3.03322   3.04566   3.05416   3.06451   3.06505
 Alpha virt. eigenvalues --    3.10958   3.11322   3.12994   3.13969   3.15561
 Alpha virt. eigenvalues --    3.16838   3.18454   3.22863   3.29604   3.30607
 Alpha virt. eigenvalues --    3.34390   3.34615   3.38750   3.40504   3.41456
 Alpha virt. eigenvalues --    3.42687   3.43006   3.53276   3.55697   3.57570
 Alpha virt. eigenvalues --    3.60145   4.38418   4.40916   4.44708   4.46841
 Alpha virt. eigenvalues --    4.49158   4.51879   4.55127   4.57546   4.61381
 Alpha virt. eigenvalues --    4.63397   4.66411   4.67475   4.68522   4.70083
 Alpha virt. eigenvalues --    4.71219   4.77001   4.78932   4.82684   4.83830
 Alpha virt. eigenvalues --    4.87882   4.89264   4.93750   4.95074   4.99077
 Alpha virt. eigenvalues --    5.01707   5.11915   5.21911   5.23537
          Condensed to atoms (all electrons):
 Mulliken atomic charges:
              1
     1  C   -0.279696
     2  N   -0.783405
     3  C    0.821940
     4  O   -0.628154
     5  C    0.102362
     6  C   -0.472773
     7  C   -0.334305
     8  C   -0.311596
     9  C   -0.373544
    10  C   -0.180823
    11  C   -0.173699
    12  C   -0.353480
    13  C   -0.311714
    14  C   -0.330156
    15  C    0.091531
    16  C   -0.509572
    17  N   -0.787724
    18  C    0.767308
    19  C   -0.595696
    20  O   -0.613877
    21  C    0.820529
    22  O   -0.639117
    23  N   -0.806091
    24  C   -0.275573
    25  N   -0.843072
    26  C    0.744559
    27  C   -0.588674
    28  O   -0.591744
    29  H    0.186992
    30  H    0.198463
    31  H    0.162182
    32  H    0.391288
    33  H    0.198903
    34  H    0.144074
    35  H    0.212523
    36  H    0.161313
    37  H    0.182069
    38  H    0.164367
    39  H    0.179644
    40  H    0.213323
    41  H    0.174652
    42  H    0.180369
    43  H    0.169651
    44  H    0.177056
    45  H    0.160200
    46  H    0.151840
    47  H    0.199743
    48  H    0.173655
    49  H    0.183926
    50  H    0.183572
    51  H    0.148155
    52  H    0.226732
    53  H    0.389817
    54  H    0.211214
    55  H    0.209576
    56  H    0.176306
    57  H    0.395284
    58  H    0.164815
    59  H    0.199684
    60  H    0.185106
    61  H    0.382594
    62  H    0.218632
    63  H    0.177168
    64  H    0.201367
 Sum of Mulliken atomic charges =   0.00000
 Mulliken charges with hydrogens summed into heavy atoms:
              1
     1  C    0.267940
     2  N   -0.392117
     3  C    0.821940
     4  O   -0.628154
     5  C    0.102362
     6  C    0.082728
     7  C    0.009077
     8  C    0.032414
     9  C    0.014431
    10  C   -0.000454
    11  C   -0.004047
    12  C   -0.016224
    13  C    0.039870
    14  C    0.027425
    15  C    0.091531
    16  C    0.048887
    17  N   -0.397907
    18  C    0.767308
    19  C    0.001399
    20  O   -0.613877
    21  C    0.820529
    22  O   -0.639117
    23  N   -0.410807
    24  C    0.274032
    25  N   -0.460478
    26  C    0.744559
    27  C    0.008492
    28  O   -0.591744
 Sum of Mulliken charges with hydrogens summed into heavy atoms =   0.00000
 Electronic spatial extent (au):  <R**2>=          22626.1115
 Charge=              0.0000 electrons
 Dipole moment (field-independent basis, Debye):
    X=             -2.5888    Y=             -4.1233    Z=              6.5977  Tot=              8.1996
 Quadrupole moment (field-independent basis, Debye-Ang):
   XX=           -199.0851   YY=           -154.6070   ZZ=           -173.6415
   XY=             13.6887   XZ=            -20.2784   YZ=              9.4621
 Traceless Quadrupole moment (field-independent basis, Debye-Ang):
   XX=            -23.3072   YY=             21.1709   ZZ=              2.1363
   XY=             13.6887   XZ=            -20.2784   YZ=              9.4621
 Octapole moment (field-independent basis, Debye-Ang**2):
  XXX=           -272.0938  YYY=             49.8053  ZZZ=             19.3990  XYY=             59.0957
  XXY=           -222.8581  XXZ=            176.2537  XZZ=            -10.7048  YZZ=             -1.6153
  YYZ=              4.4498  XYZ=              6.1668
 Hexadecapole moment (field-independent basis, Debye-Ang**3):
 XXXX=         -28294.6954 YYYY=          -2274.0130 ZZZZ=          -1301.4185 XXXY=            377.8958
 XXXZ=          -1175.4652 YYYX=             73.5919 YYYZ=             -2.5972 ZZZX=            -65.3287
 ZZZY=             22.2134 XXYY=          -4304.9570 XXZZ=          -4457.2391 YYZZ=           -611.5965
 XXYZ=            207.4097 YYXZ=            -76.1330 ZZXY=             35.4454
 N-N= 2.674262716889D+03 E-N=-8.380544202020D+03  KE= 1.294015574030D+03
 1\1\GINC-MOSURA\SP\RHF\6-31G(d)\C20H36N4O4\MARIE\05-Dec-2019\0\\#SP HF
 /6-31G* Geom=(ModRedundant)\\paramfit run\\0,1\C,0,0.,0.,0.\N,0,1.4481
 87,0.,0.\C,0,2.1232,0.47592,1.072365\O,0,1.590179,0.696732,2.124447\C,
 0,3.650505,0.594143,0.921539\C,0,4.198902,1.549248,1.986845\C,0,4.3077
 51,-0.809116,1.023981\C,0,4.133566,-1.622781,2.319066\C,0,2.832729,-2.
 433298,2.484965\C,0,2.579342,-3.423586,1.372579\C,0,2.834093,-4.721989
 ,1.375535\C,0,3.442731,-5.535663,2.492337\C,0,2.46312,-6.507144,3.1750
 91\C,0,1.8961,-7.554254,2.207123\C,0,1.036295,-8.701733,2.797606\C,0,0
 .545916,-9.565992,1.62456\N,0,1.875718,-9.506082,3.675058\C,0,1.3517,-
 10.502497,4.446822\C,0,2.249586,-10.982773,5.563935\O,0,0.261845,-10.9
 672,4.258648\C,0,-0.096144,-8.080783,3.646564\O,0,0.109002,-7.75444,4.
 784696\N,0,-1.271379,-7.831721,3.029497\C,0,-2.390262,-7.298117,3.7788
 76\N,0,3.997412,1.070275,-0.425452\C,0,3.587019,2.267163,-0.934086\C,0
 ,4.328148,2.727659,-2.172145\O,0,2.697134,2.905425,-0.447397\H,0,-0.40
 3259,1.006147,0.\H,0,-0.36496,-0.516002,0.875939\H,0,-0.345658,-0.5220
 86,-0.883346\H,0,1.904244,0.070913,-0.879357\H,0,3.932135,1.22176,2.98
 0082\H,0,5.28092,1.595925,1.9075\H,0,3.792711,2.540594,1.848395\H,0,5.
 374584,-0.64325,0.891407\H,0,3.984642,-1.403324,0.174983\H,0,4.961565,
 -2.324757,2.354635\H,0,4.250121,-0.975721,3.182259\H,0,1.985724,-1.764
 045,2.562723\H,0,2.895638,-2.94811,3.437249\H,0,2.135502,-3.009181,0.4
 81856\H,0,2.579482,-5.276386,0.485828\H,0,3.856514,-4.882448,3.250993\
 H,0,4.281511,-6.102424,2.090062\H,0,2.990126,-6.985208,3.996123\H,0,1.
 657209,-5.943636,3.626531\H,0,2.713695,-8.026663,1.666843\H,0,1.286987
 ,-7.048,1.467502\H,0,1.403581,-10.036302,1.157867\H,0,0.055787,-8.9611
 48,0.868705\H,0,-0.125941,-10.343615,1.955694\H,0,2.64623,-9.027062,4.
 081951\H,0,1.940363,-11.972053,5.865211\H,0,2.139198,-10.310687,6.4096
 53\H,0,3.293809,-10.996711,5.27104\H,0,-1.478257,-8.321469,2.19125\H,0
 ,-3.186836,-7.058569,3.086772\H,0,-2.088346,-6.39797,4.293859\H,0,-2.7
 57304,-8.007016,4.514061\H,0,4.82812,0.684785,-0.816437\H,0,3.710173,3
 .434604,-2.706288\H,0,4.588171,1.902533,-2.825678\H,0,5.244771,3.22620
 1,-1.873716\\Version=EM64L-G09RevA.02\State=1-A\HF=-1295.6219822\RMSD=
 6.066e-09\Dipole=2.0019615,-0.2473683,-2.5175038\Quadrupole=17.843316,
 -27.826714,9.9833979,4.8863336,3.3584659,-4.9287525\PG=C01 [X(C20H36N4
 O4)]\\@


 THE MOST BEAUTIFUL EXPERIENCE WE CAN HAVE IS THE MYSTERIOUS.
 IT IS THE FUNDAMENTAL EMOTION WHICH STANDS AT AT THE CRADLE 
 OF TRUE ART AND TRUE SCIENCE.

                                    -- ALBERT EINSTEIN
 Job cpu time:  0 days  0 hours  5 minutes 16.2 seconds.
 File lengths (MBytes):  RWF=    132 Int=      0 D2E=      0 Chk=     10 Scr=      1
 Normal termination of Gaussian 09 at Thu Dec  5 18:41:59 2019.
