 Entering Gaussian System, Link 0=g09
 Input=CHI6_-70.gau
 Output=CHI6_-70.log
 Initial command:
 /home/marie/Utilities//g09/l1.exe /tmp/g09/Gau-13341.inp -scrdir=/tmp/g09/
 Entering Link 1 = /home/marie/Utilities//g09/l1.exe PID=     13343.
  
 Copyright (c) 1988,1990,1992,1993,1995,1998,2003,2009, Gaussian, Inc.
                  All Rights Reserved.
  
 This is part of the Gaussian(R) 09 program.  It is based on
 the Gaussian(R) 03 system (copyright 2003, Gaussian, Inc.),
 the Gaussian(R) 98 system (copyright 1998, Gaussian, Inc.),
 the Gaussian(R) 94 system (copyright 1995, Gaussian, Inc.),
 the Gaussian 92(TM) system (copyright 1992, Gaussian, Inc.),
 the Gaussian 90(TM) system (copyright 1990, Gaussian, Inc.),
 the Gaussian 88(TM) system (copyright 1988, Gaussian, Inc.),
 the Gaussian 86(TM) system (copyright 1986, Carnegie Mellon
 University), and the Gaussian 82(TM) system (copyright 1983,
 Carnegie Mellon University). Gaussian is a federally registered
 trademark of Gaussian, Inc.
  
 This software contains proprietary and confidential information,
 including trade secrets, belonging to Gaussian, Inc.
  
 This software is provided under written license and may be
 used, copied, transmitted, or stored only in accord with that
 written license.
  
 The following legend is applicable only to US Government
 contracts under FAR:
  
                    RESTRICTED RIGHTS LEGEND
  
 Use, reproduction and disclosure by the US Government is
 subject to restrictions as set forth in subparagraphs (a)
 and (c) of the Commercial Computer Software - Restricted
 Rights clause in FAR 52.227-19.
  
 Gaussian, Inc.
 340 Quinnipiac St., Bldg. 40, Wallingford CT 06492
  
  
 ---------------------------------------------------------------
 Warning -- This program may not be used in any manner that
 competes with the business of Gaussian, Inc. or will provide
 assistance to any competitor of Gaussian, Inc.  The licensee
 of this program is prohibited from giving any competitor of
 Gaussian, Inc. access to this program.  By using this program,
 the user acknowledges that Gaussian, Inc. is engaged in the
 business of creating and licensing software in the field of
 computational chemistry and represents and warrants to the
 licensee that it is not a competitor of Gaussian, Inc. and that
 it will not use this program in any manner prohibited above.
 ---------------------------------------------------------------
  

 Cite this work as:
 Gaussian 09, Revision A.02,
 M. J. Frisch, G. W. Trucks, H. B. Schlegel, G. E. Scuseria, 
 M. A. Robb, J. R. Cheeseman, G. Scalmani, V. Barone, B. Mennucci, 
 G. A. Petersson, H. Nakatsuji, M. Caricato, X. Li, H. P. Hratchian, 
 A. F. Izmaylov, J. Bloino, G. Zheng, J. L. Sonnenberg, M. Hada, 
 M. Ehara, K. Toyota, R. Fukuda, J. Hasegawa, M. Ishida, T. Nakajima, 
 Y. Honda, O. Kitao, H. Nakai, T. Vreven, J. A. Montgomery, Jr., 
 J. E. Peralta, F. Ogliaro, M. Bearpark, J. J. Heyd, E. Brothers, 
 K. N. Kudin, V. N. Staroverov, R. Kobayashi, J. Normand, 
 K. Raghavachari, A. Rendell, J. C. Burant, S. S. Iyengar, J. Tomasi, 
 M. Cossi, N. Rega, J. M. Millam, M. Klene, J. E. Knox, J. B. Cross, 
 V. Bakken, C. Adamo, J. Jaramillo, R. Gomperts, R. E. Stratmann, 
 O. Yazyev, A. J. Austin, R. Cammi, C. Pomelli, J. W. Ochterski, 
 R. L. Martin, K. Morokuma, V. G. Zakrzewski, G. A. Voth, 
 P. Salvador, J. J. Dannenberg, S. Dapprich, A. D. Daniels, 
 O. Farkas, J. B. Foresman, J. V. Ortiz, J. Cioslowski, 
 and D. J. Fox, Gaussian, Inc., Wallingford CT, 2009.
 
 ******************************************
 Gaussian 09:  EM64L-G09RevA.02 11-Jun-2009
                 5-Dec-2019 
 ******************************************
 %chk=CHI6_-70
 %NoSave
 ---------------------------------
 #SP HF/6-31G* Geom=(ModRedundant)
 ---------------------------------
 1/18=120,38=1/1;
 2/12=2,17=6,18=5,40=1/2;
 3/5=1,6=6,7=1,11=9,16=1,25=1,30=1/1,2,3;
 4//1;
 5/5=2,38=5/2;
 6/7=2,8=2,9=2,10=2,28=1/1;
 99/5=1,9=1/99;
 ------------
 paramfit run
 ------------
 Symbolic Z-matrix:
 Charge =  0 Multiplicity = 1
 C-CT--0.3208          0.        0.        0. 
 N-N--0.5622           1.44819   0.        0. 
 C-C-0.8053            2.1232    0.47592   1.07237 
 O-O--0.6151           1.59018   0.69673   2.12445 
 C-CX-0.0839           3.65051   0.59414   0.92154 
 C-CU--0.3230          4.1989    1.54925   1.98685 
 C-CU--0.0657          4.30775  -0.80912   1.02398 
 C-CU--0.0109          4.13357  -1.62278   2.31907 
 C-CU-0.0816           2.83273  -2.4333    2.48497 
 C-CM--0.2354          2.57934  -3.42359   1.37258 
 C-CM--0.2653          2.83409  -4.72199   1.37554 
 C-CU-0.1214           3.44273  -5.53566   2.49234 
 C-CU--0.0354          4.9332   -5.24713   2.74696 
 C-CU--0.0984          5.19366  -3.79019   3.15241 
 C-CU-0.1300           6.62469  -3.40638   3.61009 
 C-CU--0.3561          6.63169  -1.89589   3.89616 
 N-N--0.7186           6.93077  -4.13342   4.83453 
 C-C-0.8537            8.17761  -4.10333   5.38909 
 C-CT--0.3868          8.44634  -5.18267   6.41262 
 O-O--0.6323           9.00297  -3.28502   5.09193 
 C-C-0.7903            7.62558  -3.85146   2.51974 
 O-O--0.6136           8.024    -4.9847    2.48912 
 N-N--0.5650           7.94271  -2.95334   1.56225 
 C-CT--0.3231          8.91301  -3.28831   0.54024 
 N-N--0.7191           3.99741   1.07028  -0.42545 
 C-C-0.8539            3.58702   2.26716  -0.93409 
 C-CT--0.3903          4.32815   2.72766  -2.17214 
 O-O--0.6290           2.69713   2.90543  -0.4474 
 H-H1-0.1459          -0.40326   1.00615   0. 
 H-H1-0.1459          -0.36496  -0.516     0.87594 
 H-H1-0.1459          -0.34566  -0.52209  -0.88335 
 H-H-0.3572            1.90424   0.07091  -0.87936 
 H-HC-0.0997           3.93214   1.22176   2.98008 
 H-HC-0.0997           5.28092   1.59593   1.9075 
 H-HC-0.0997           3.79271   2.54059   1.8484 
 H-HC-0.0347           5.37458  -0.64325   0.89141 
 H-HC-0.0347           3.98464  -1.40332   0.17498 
 H-HC-0.0243           4.96157  -2.32476   2.35464 
 H-HC-0.0243           4.25012  -0.97572   3.18226 
 H-HC-0.0171           1.98572  -1.76405   2.56272 
 H-HC-0.0171           2.89564  -2.94811   3.43725 
 H-HA-0.1313           2.1355   -3.00918   0.48186 
 H-HA-0.1359           2.57948  -5.27639   0.48583 
 H-HC-0.0092           3.33202  -6.59405   2.2898 
 H-HC-0.0092           2.88289  -5.34181   3.40645 
 H-HC-0.0318           5.27475  -5.93023   3.51967 
 H-HC-0.0318           5.50158  -5.49309   1.85967 
 H-HC-0.0435           4.52483  -3.51667   3.96567 
 H-HC-0.0435           4.94382  -3.14814   2.31593 
 H-HC-0.1066           5.97879  -1.69932   4.73857 
 H-HC-0.1066           6.24902  -1.33392   3.05051 
 H-HC-0.1066           7.62051  -1.54201   4.14663 
 H-H-0.3529            6.44518  -4.99334   4.95046 
 H-HC-0.1047           9.26453  -4.87382   7.04526 
 H-HC-0.1047           8.73317  -6.09064   5.89067 
 H-HC-0.1047           7.57287  -5.397     7.01883 
 H-H-0.3615            7.79527  -1.98991   1.75035 
 H-H1-0.1469           8.93392  -2.49089  -0.19094 
 H-H1-0.1469           8.62522  -4.20735   0.05118 
 H-H1-0.1469           9.90716  -3.41778   0.95575 
 H-H-0.3570            4.82812   0.68479  -0.81644 
 H-HC-0.1060           3.71017   3.4346   -2.70629 
 H-HC-0.1060           4.58817   1.90253  -2.82568 
 H-HC-0.1060           5.24477   3.2262   -1.87372 
 
 The following ModRedundant input section has been read:
 D    *   11   12    * F                                                       
 Stoichiometry    C20H36N4O4
 Framework group  C1[X(C20H36N4O4)]
 Deg. of freedom   186
 Full point group                 C1      NOp   1
 Largest Abelian subgroup         C1      NOp   1
 Largest concise Abelian subgroup C1      NOp   1
                         Standard orientation:                         
 ---------------------------------------------------------------------
 Center     Atomic      Atomic             Coordinates (Angstroms)
 Number     Number       Type             X           Y           Z
 ---------------------------------------------------------------------
      1          6    20001001       -5.007339    2.462926   -0.008210
      2          7    20001014       -4.163785    1.309392    0.226358
      3          6    20001002       -3.565226    0.687636   -0.816357
      4          8    20001024       -3.513138    1.171911   -1.912948
      5          6    90000001       -2.825662   -0.624075   -0.497227
      6          6    90000002       -2.617892   -1.423101   -1.788053
      7          6    90000002       -1.474991   -0.318572    0.205594
      8          6    90000002       -0.419677    0.520845   -0.536921
      9          6    90000002       -0.566943    2.054850   -0.494728
     10          6    20001004       -0.602537    2.630837    0.901427
     11          6    20001004        0.397104    3.178648    1.573274
     12          6    90000002        1.822479    3.362786    1.110510
     13          6    90000002        2.624534    2.054193    0.992796
     14          6    90000002        2.018085    1.077098   -0.023284
     15          6    90000002        2.821030   -0.203065   -0.371289
     16          6    90000002        1.974353   -1.030453   -1.352112
     17          7    20001014        4.065345    0.191181   -1.017651
     18          6    20001002        5.039216   -0.720638   -1.306123
     19          6    20001001        6.395524   -0.128852   -1.614383
     20          8    20001024        4.841153   -1.903771   -1.316518
     21          6    20001002        3.169811   -0.937242    0.943269
     22          8    20001024        4.128858   -0.605277    1.586663
     23          7    20001014        2.305199   -1.879219    1.378134
     24          6    20001001        2.597034   -2.640491    2.575422
     25          7    20001014       -3.584464   -1.415289    0.482381
     26          6    20001002       -4.852053   -1.870489    0.268646
     27          6    20001001       -5.318487   -2.947289    1.226279
     28          8    20001024       -5.553576   -1.443806   -0.604249
     29          1    20001035       -5.900773    2.202796   -0.564140
     30          1    20001035       -4.460000    3.207701   -0.567185
     31          1    20001035       -5.292731    2.882661    0.948203
     32          1    20001029       -4.368391    0.748614    1.020052
     33          1    20001034       -2.080205   -0.844581   -2.523674
     34          1    20001034       -2.056422   -2.326062   -1.567484
     35          1    20001034       -3.570078   -1.696990   -2.218463
     36          1    20001034       -1.026033   -1.287779    0.411250
     37          1    20001034       -1.683488    0.130988    1.171361
     38          1    20001034        0.539222    0.273240   -0.091028
     39          1    20001034       -0.359247    0.207803   -1.574093
     40          1    20001034       -1.460873    2.356675   -1.024967
     41          1    20001034        0.265645    2.471715   -1.050475
     42          1    20001033       -1.561623    2.586371    1.391620
     43          1    20001033        0.182828    3.543398    2.565648
     44          1    20001034        2.353105    4.026441    1.782421
     45          1    20001034        1.810092    3.859438    0.141089
     46          1    20001034        3.643029    2.314371    0.718294
     47          1    20001034        2.688934    1.585619    1.965998
     48          1    20001034        1.841460    1.596575   -0.962689
     49          1    20001034        1.049149    0.756222    0.340794
     50          1    20001034        1.871418   -0.474006   -2.276424
     51          1    20001034        0.976034   -1.200889   -0.962632
     52          1    20001034        2.439439   -1.977966   -1.579386
     53          1    20001029        4.401205    1.095464   -0.776439
     54          1    20001034        6.974891   -0.846403   -2.175200
     55          1    20001034        6.905309    0.074377   -0.677398
     56          1    20001034        6.319209    0.798655   -2.171420
     57          1    20001029        1.679405   -2.284951    0.723097
     58          1    20001035        1.734877   -3.248046    2.817253
     59          1    20001035        2.795209   -1.967306    3.396504
     60          1    20001035        3.461132   -3.283594    2.443112
     61          1    20001029       -3.036727   -1.923847    1.140331
     62          1    20001034       -6.398609   -2.958600    1.239709
     63          1    20001034       -4.941964   -2.793997    2.231407
     64          1    20001034       -4.967028   -3.912340    0.875629
 ---------------------------------------------------------------------
 Rotational constants (GHZ):      0.2792619      0.0885394      0.0794413
 Standard basis: 6-31G(d) (6D, 7F)
 There are   492 symmetry adapted basis functions of A   symmetry.
 Integral buffers will be    131072 words long.
 Raffenetti 1 integral format.
 Two-electron integral symmetry is turned on.
   492 basis functions,   928 primitive gaussians,   492 cartesian basis functions
   108 alpha electrons      108 beta electrons
       nuclear repulsion energy      2918.7771317112 Hartrees.
 NAtoms=   64 NActive=   64 NUniq=   64 SFac= 7.50D-01 NAtFMM=   80 NAOKFM=F Big=T
 One-electron integrals computed using PRISM.
 NBasis=   492 RedAO= T  NBF=   492
 NBsUse=   492 1.00D-06 NBFU=   492
 Harris functional with IExCor=  205 diagonalized for initial guess.
 ExpMin= 1.61D-01 ExpMax= 5.48D+03 ExpMxC= 8.25D+02 IAcc=1 IRadAn=         1 AccDes= 0.00D+00
 HarFok:  IExCor=  205 AccDes= 0.00D+00 IRadAn=         1 IDoV= 1
 ScaDFX=  1.000000  1.000000  1.000000  1.000000
 FoFCou: FMM=F IPFlag=           0 FMFlag=      100000 FMFlg1=           1
         NFxFlg=           0 DoJE=T BraDBF=F KetDBF=T FulRan=T
         Omega=  0.000000  0.000000  1.000000  0.000000  0.000000 ICntrl=     500 IOpCl=  0
         NMat0=    1 NMatS0=    1 NMatT0=    0 NMatD0=    1 NMtDS0=    0 NMtDT0=    0
         I1Cent=           4 NGrid=           0.
 Petite list used in FoFCou.
 Initial guess orbital symmetries:
       Occupied  (A) (A) (A) (A) (A) (A) (A) (A) (A) (A) (A) (A)
                 (A) (A) (A) (A) (A) (A) (A) (A) (A) (A) (A) (A)
                 (A) (A) (A) (A) (A) (A) (A) (A) (A) (A) (A) (A)
                 (A) (A) (A) (A) (A) (A) (A) (A) (A) (A) (A) (A)
                 (A) (A) (A) (A) (A) (A) (A) (A) (A) (A) (A) (A)
                 (A) (A) (A) (A) (A) (A) (A) (A) (A) (A) (A) (A)
                 (A) (A) (A) (A) (A) (A) (A) (A) (A) (A) (A) (A)
                 (A) (A) (A) (A) (A) (A) (A) (A) (A) (A) (A) (A)
                 (A) (A) (A) (A) (A) (A) (A) (A) (A) (A) (A) (A)
       Virtual   (A) (A) (A) (A) (A) (A) (A) (A) (A) (A) (A) (A)
                 (A) (A) (A) (A) (A) (A) (A) (A) (A) (A) (A) (A)
                 (A) (A) (A) (A) (A) (A) (A) (A) (A) (A) (A) (A)
                 (A) (A) (A) (A) (A) (A) (A) (A) (A) (A) (A) (A)
                 (A) (A) (A) (A) (A) (A) (A) (A) (A) (A) (A) (A)
                 (A) (A) (A) (A) (A) (A) (A) (A) (A) (A) (A) (A)
                 (A) (A) (A) (A) (A) (A) (A) (A) (A) (A) (A) (A)
                 (A) (A) (A) (A) (A) (A) (A) (A) (A) (A) (A) (A)
                 (A) (A) (A) (A) (A) (A) (A) (A) (A) (A) (A) (A)
                 (A) (A) (A) (A) (A) (A) (A) (A) (A) (A) (A) (A)
                 (A) (A) (A) (A) (A) (A) (A) (A) (A) (A) (A) (A)
                 (A) (A) (A) (A) (A) (A) (A) (A) (A) (A) (A) (A)
                 (A) (A) (A) (A) (A) (A) (A) (A) (A) (A) (A) (A)
                 (A) (A) (A) (A) (A) (A) (A) (A) (A) (A) (A) (A)
                 (A) (A) (A) (A) (A) (A) (A) (A) (A) (A) (A) (A)
                 (A) (A) (A) (A) (A) (A) (A) (A) (A) (A) (A) (A)
                 (A) (A) (A) (A) (A) (A) (A) (A) (A) (A) (A) (A)
                 (A) (A) (A) (A) (A) (A) (A) (A) (A) (A) (A) (A)
                 (A) (A) (A) (A) (A) (A) (A) (A) (A) (A) (A) (A)
                 (A) (A) (A) (A) (A) (A) (A) (A) (A) (A) (A) (A)
                 (A) (A) (A) (A) (A) (A) (A) (A) (A) (A) (A) (A)
                 (A) (A) (A) (A) (A) (A) (A) (A) (A) (A) (A) (A)
                 (A) (A) (A) (A) (A) (A) (A) (A) (A) (A) (A) (A)
                 (A) (A) (A) (A) (A) (A) (A) (A) (A) (A) (A) (A)
                 (A) (A) (A) (A) (A) (A) (A) (A) (A) (A) (A) (A)
                 (A) (A) (A) (A) (A) (A) (A) (A) (A) (A) (A) (A)
                 (A) (A) (A) (A) (A) (A) (A) (A) (A) (A) (A) (A)
                 (A) (A) (A) (A) (A) (A) (A) (A) (A) (A) (A) (A)
                 (A) (A) (A) (A) (A) (A) (A) (A) (A) (A) (A) (A)
                 (A) (A) (A) (A) (A) (A) (A) (A) (A) (A) (A) (A)
                 (A) (A) (A) (A) (A) (A) (A) (A) (A) (A) (A) (A)
                 (A) (A) (A) (A) (A) (A) (A) (A) (A) (A) (A) (A)
 The electronic state of the initial guess is 1-A.
 Requested convergence on RMS density matrix=1.00D-08 within 128 cycles.
 Requested convergence on MAX density matrix=1.00D-06.
 Requested convergence on             energy=1.00D-06.
 No special actions if energy rises.
 Integral accuracy reduced to 1.0D-05 until final iterations.
 Initial convergence to 1.0D-05 achieved.  Increase integral accuracy.
 SCF Done:  E(RHF) =  -1295.46107234     A.U. after   14 cycles
             Convg  =    0.7156D-08             -V/T =  2.0007

 **********************************************************************

            Population analysis using the SCF density.

 **********************************************************************

 Orbital symmetries:
       Occupied  (A) (A) (A) (A) (A) (A) (A) (A) (A) (A) (A) (A)
                 (A) (A) (A) (A) (A) (A) (A) (A) (A) (A) (A) (A)
                 (A) (A) (A) (A) (A) (A) (A) (A) (A) (A) (A) (A)
                 (A) (A) (A) (A) (A) (A) (A) (A) (A) (A) (A) (A)
                 (A) (A) (A) (A) (A) (A) (A) (A) (A) (A) (A) (A)
                 (A) (A) (A) (A) (A) (A) (A) (A) (A) (A) (A) (A)
                 (A) (A) (A) (A) (A) (A) (A) (A) (A) (A) (A) (A)
                 (A) (A) (A) (A) (A) (A) (A) (A) (A) (A) (A) (A)
                 (A) (A) (A) (A) (A) (A) (A) (A) (A) (A) (A) (A)
       Virtual   (A) (A) (A) (A) (A) (A) (A) (A) (A) (A) (A) (A)
                 (A) (A) (A) (A) (A) (A) (A) (A) (A) (A) (A) (A)
                 (A) (A) (A) (A) (A) (A) (A) (A) (A) (A) (A) (A)
                 (A) (A) (A) (A) (A) (A) (A) (A) (A) (A) (A) (A)
                 (A) (A) (A) (A) (A) (A) (A) (A) (A) (A) (A) (A)
                 (A) (A) (A) (A) (A) (A) (A) (A) (A) (A) (A) (A)
                 (A) (A) (A) (A) (A) (A) (A) (A) (A) (A) (A) (A)
                 (A) (A) (A) (A) (A) (A) (A) (A) (A) (A) (A) (A)
                 (A) (A) (A) (A) (A) (A) (A) (A) (A) (A) (A) (A)
                 (A) (A) (A) (A) (A) (A) (A) (A) (A) (A) (A) (A)
                 (A) (A) (A) (A) (A) (A) (A) (A) (A) (A) (A) (A)
                 (A) (A) (A) (A) (A) (A) (A) (A) (A) (A) (A) (A)
                 (A) (A) (A) (A) (A) (A) (A) (A) (A) (A) (A) (A)
                 (A) (A) (A) (A) (A) (A) (A) (A) (A) (A) (A) (A)
                 (A) (A) (A) (A) (A) (A) (A) (A) (A) (A) (A) (A)
                 (A) (A) (A) (A) (A) (A) (A) (A) (A) (A) (A) (A)
                 (A) (A) (A) (A) (A) (A) (A) (A) (A) (A) (A) (A)
                 (A) (A) (A) (A) (A) (A) (A) (A) (A) (A) (A) (A)
                 (A) (A) (A) (A) (A) (A) (A) (A) (A) (A) (A) (A)
                 (A) (A) (A) (A) (A) (A) (A) (A) (A) (A) (A) (A)
                 (A) (A) (A) (A) (A) (A) (A) (A) (A) (A) (A) (A)
                 (A) (A) (A) (A) (A) (A) (A) (A) (A) (A) (A) (A)
                 (A) (A) (A) (A) (A) (A) (A) (A) (A) (A) (A) (A)
                 (A) (A) (A) (A) (A) (A) (A) (A) (A) (A) (A) (A)
                 (A) (A) (A) (A) (A) (A) (A) (A) (A) (A) (A) (A)
                 (A) (A) (A) (A) (A) (A) (A) (A) (A) (A) (A) (A)
                 (A) (A) (A) (A) (A) (A) (A) (A) (A) (A) (A) (A)
                 (A) (A) (A) (A) (A) (A) (A) (A) (A) (A) (A) (A)
                 (A) (A) (A) (A) (A) (A) (A) (A) (A) (A) (A) (A)
                 (A) (A) (A) (A) (A) (A) (A) (A) (A) (A) (A) (A)
                 (A) (A) (A) (A) (A) (A) (A) (A) (A) (A) (A) (A)
                 (A) (A) (A) (A) (A) (A) (A) (A) (A) (A) (A) (A)
 The electronic state is 1-A.
 Alpha  occ. eigenvalues --  -20.53850 -20.52252 -20.52207 -20.52086 -15.59827
 Alpha  occ. eigenvalues --  -15.58829 -15.57748 -15.57716 -11.36158 -11.34445
 Alpha  occ. eigenvalues --  -11.34300 -11.34100 -11.29236 -11.28907 -11.25906
 Alpha  occ. eigenvalues --  -11.25060 -11.24534 -11.24439 -11.22657 -11.22625
 Alpha  occ. eigenvalues --  -11.22540 -11.22301 -11.22296 -11.22023 -11.21958
 Alpha  occ. eigenvalues --  -11.21793 -11.21231 -11.21170  -1.40787  -1.39791
 Alpha  occ. eigenvalues --   -1.38938  -1.38496  -1.25664  -1.23887  -1.23439
 Alpha  occ. eigenvalues --   -1.22292  -1.13525  -1.08974  -1.07780  -1.05041
 Alpha  occ. eigenvalues --   -1.01968  -1.00262  -0.98907  -0.96119  -0.95726
 Alpha  occ. eigenvalues --   -0.95484  -0.92082  -0.89576  -0.86487  -0.85066
 Alpha  occ. eigenvalues --   -0.81660  -0.80418  -0.78251  -0.77522  -0.77394
 Alpha  occ. eigenvalues --   -0.73057  -0.71859  -0.71343  -0.69672  -0.69157
 Alpha  occ. eigenvalues --   -0.67724  -0.66057  -0.65704  -0.64705  -0.64042
 Alpha  occ. eigenvalues --   -0.63314  -0.63105  -0.62683  -0.61821  -0.61603
 Alpha  occ. eigenvalues --   -0.61481  -0.61012  -0.59663  -0.59479  -0.59061
 Alpha  occ. eigenvalues --   -0.58381  -0.57972  -0.57296  -0.56488  -0.56423
 Alpha  occ. eigenvalues --   -0.56009  -0.55507  -0.55307  -0.54934  -0.54705
 Alpha  occ. eigenvalues --   -0.53545  -0.53272  -0.52587  -0.52256  -0.51622
 Alpha  occ. eigenvalues --   -0.51198  -0.50346  -0.50175  -0.49860  -0.49586
 Alpha  occ. eigenvalues --   -0.47779  -0.46647  -0.44730  -0.43088  -0.42858
 Alpha  occ. eigenvalues --   -0.41855  -0.41500  -0.39633  -0.39519  -0.38878
 Alpha  occ. eigenvalues --   -0.38609  -0.37940  -0.34660
 Alpha virt. eigenvalues --    0.17099   0.18001   0.18681   0.19326   0.19697
 Alpha virt. eigenvalues --    0.21200   0.21658   0.22596   0.22765   0.23706
 Alpha virt. eigenvalues --    0.25173   0.25551   0.26412   0.26486   0.27076
 Alpha virt. eigenvalues --    0.27757   0.28307   0.28550   0.29170   0.29218
 Alpha virt. eigenvalues --    0.29532   0.30458   0.30989   0.31420   0.31813
 Alpha virt. eigenvalues --    0.32432   0.32747   0.33107   0.33484   0.33617
 Alpha virt. eigenvalues --    0.33885   0.34356   0.34538   0.35505   0.35799
 Alpha virt. eigenvalues --    0.36045   0.36255   0.36972   0.37561   0.37983
 Alpha virt. eigenvalues --    0.38574   0.38740   0.39384   0.39827   0.40998
 Alpha virt. eigenvalues --    0.41761   0.42443   0.43218   0.44134   0.44327
 Alpha virt. eigenvalues --    0.45020   0.45704   0.47084   0.48015   0.48755
 Alpha virt. eigenvalues --    0.49083   0.50285   0.51908   0.52171   0.53005
 Alpha virt. eigenvalues --    0.54869   0.55750   0.57762   0.59136   0.60441
 Alpha virt. eigenvalues --    0.61782   0.63047   0.64720   0.68610   0.70210
 Alpha virt. eigenvalues --    0.70917   0.71907   0.72958   0.73629   0.73766
 Alpha virt. eigenvalues --    0.74266   0.74354   0.75068   0.75906   0.76106
 Alpha virt. eigenvalues --    0.76988   0.77165   0.77695   0.78387   0.79655
 Alpha virt. eigenvalues --    0.80240   0.80526   0.81564   0.82527   0.82914
 Alpha virt. eigenvalues --    0.83655   0.84191   0.85021   0.86117   0.87437
 Alpha virt. eigenvalues --    0.88165   0.88782   0.90189   0.90423   0.91347
 Alpha virt. eigenvalues --    0.91629   0.92577   0.93459   0.94632   0.95323
 Alpha virt. eigenvalues --    0.95647   0.97053   0.97302   0.97573   0.98292
 Alpha virt. eigenvalues --    0.98835   0.99629   1.00183   1.00623   1.00716
 Alpha virt. eigenvalues --    1.01413   1.01736   1.02579   1.03436   1.03752
 Alpha virt. eigenvalues --    1.04497   1.06078   1.06837   1.07168   1.07842
 Alpha virt. eigenvalues --    1.08774   1.09214   1.10893   1.11509   1.11972
 Alpha virt. eigenvalues --    1.12863   1.13259   1.13511   1.13921   1.14455
 Alpha virt. eigenvalues --    1.14593   1.14978   1.15094   1.15712   1.16096
 Alpha virt. eigenvalues --    1.16321   1.17331   1.18006   1.18200   1.18250
 Alpha virt. eigenvalues --    1.18487   1.19133   1.19676   1.19778   1.20020
 Alpha virt. eigenvalues --    1.20546   1.21104   1.21770   1.22017   1.22136
 Alpha virt. eigenvalues --    1.22379   1.22691   1.23009   1.23872   1.24044
 Alpha virt. eigenvalues --    1.24374   1.25245   1.26243   1.26679   1.27227
 Alpha virt. eigenvalues --    1.27407   1.29128   1.29881   1.31215   1.31493
 Alpha virt. eigenvalues --    1.32155   1.32814   1.34055   1.35092   1.35545
 Alpha virt. eigenvalues --    1.37089   1.37597   1.38565   1.39607   1.40369
 Alpha virt. eigenvalues --    1.41623   1.42688   1.43211   1.44244   1.45717
 Alpha virt. eigenvalues --    1.46370   1.47690   1.48869   1.49960   1.51055
 Alpha virt. eigenvalues --    1.51886   1.53285   1.55071   1.56008   1.57257
 Alpha virt. eigenvalues --    1.59636   1.60142   1.61331   1.62159   1.62768
 Alpha virt. eigenvalues --    1.63480   1.64302   1.66978   1.68186   1.69637
 Alpha virt. eigenvalues --    1.70941   1.71219   1.72958   1.73111   1.74336
 Alpha virt. eigenvalues --    1.75255   1.77085   1.78103   1.79956   1.80447
 Alpha virt. eigenvalues --    1.81914   1.82877   1.83834   1.87315   1.89341
 Alpha virt. eigenvalues --    1.89899   1.90139   1.94186   1.95685   1.96745
 Alpha virt. eigenvalues --    1.96815   1.97510   1.99681   2.00542   2.01495
 Alpha virt. eigenvalues --    2.04936   2.06116   2.07327   2.08179   2.09213
 Alpha virt. eigenvalues --    2.10776   2.11381   2.12050   2.12919   2.13302
 Alpha virt. eigenvalues --    2.13706   2.14192   2.15544   2.15846   2.16508
 Alpha virt. eigenvalues --    2.16881   2.18185   2.19062   2.19439   2.20423
 Alpha virt. eigenvalues --    2.21114   2.22375   2.22830   2.23688   2.24588
 Alpha virt. eigenvalues --    2.24987   2.25617   2.27254   2.28429   2.29432
 Alpha virt. eigenvalues --    2.30039   2.30535   2.31484   2.32702   2.33758
 Alpha virt. eigenvalues --    2.34087   2.34401   2.34586   2.35254   2.37489
 Alpha virt. eigenvalues --    2.37924   2.38174   2.38724   2.39874   2.41364
 Alpha virt. eigenvalues --    2.42085   2.42232   2.42737   2.45446   2.46304
 Alpha virt. eigenvalues --    2.46806   2.48578   2.49851   2.50990   2.51517
 Alpha virt. eigenvalues --    2.53061   2.54594   2.55848   2.56102   2.56680
 Alpha virt. eigenvalues --    2.57134   2.57917   2.58121   2.59090   2.61728
 Alpha virt. eigenvalues --    2.62307   2.63107   2.64594   2.64983   2.65364
 Alpha virt. eigenvalues --    2.67414   2.70051   2.70913   2.71122   2.71340
 Alpha virt. eigenvalues --    2.73287   2.73588   2.74463   2.75019   2.76761
 Alpha virt. eigenvalues --    2.77349   2.78507   2.79059   2.80087   2.81477
 Alpha virt. eigenvalues --    2.81640   2.83068   2.84716   2.85885   2.86986
 Alpha virt. eigenvalues --    2.87990   2.88576   2.89990   2.94483   2.95894
 Alpha virt. eigenvalues --    2.97341   2.98124   2.98854   3.01569   3.02994
 Alpha virt. eigenvalues --    3.04592   3.04867   3.06105   3.06792   3.10195
 Alpha virt. eigenvalues --    3.11366   3.11580   3.13384   3.14935   3.17132
 Alpha virt. eigenvalues --    3.17841   3.21938   3.23628   3.29460   3.30912
 Alpha virt. eigenvalues --    3.34577   3.35106   3.38682   3.40385   3.40767
 Alpha virt. eigenvalues --    3.42689   3.43083   3.53081   3.55392   3.57815
 Alpha virt. eigenvalues --    3.60106   4.38808   4.40868   4.44746   4.47327
 Alpha virt. eigenvalues --    4.50037   4.51768   4.57125   4.58781   4.62775
 Alpha virt. eigenvalues --    4.64293   4.66686   4.68275   4.69262   4.71462
 Alpha virt. eigenvalues --    4.72923   4.76577   4.79945   4.83759   4.87839
 Alpha virt. eigenvalues --    4.89225   4.89769   4.94998   4.97402   5.01542
 Alpha virt. eigenvalues --    5.08342   5.14824   5.22675   5.27882
          Condensed to atoms (all electrons):
 Mulliken atomic charges:
              1
     1  C   -0.280047
     2  N   -0.783872
     3  C    0.823091
     4  O   -0.629250
     5  C    0.108424
     6  C   -0.473401
     7  C   -0.322501
     8  C   -0.355762
     9  C   -0.400293
    10  C   -0.180848
    11  C   -0.181988
    12  C   -0.352956
    13  C   -0.291597
    14  C   -0.395518
    15  C    0.109000
    16  C   -0.532118
    17  N   -0.793056
    18  C    0.768162
    19  C   -0.595597
    20  O   -0.615728
    21  C    0.830025
    22  O   -0.638308
    23  N   -0.815215
    24  C   -0.274625
    25  N   -0.843771
    26  C    0.744656
    27  C   -0.588961
    28  O   -0.591396
    29  H    0.187420
    30  H    0.197856
    31  H    0.163644
    32  H    0.391691
    33  H    0.199221
    34  H    0.140556
    35  H    0.214405
    36  H    0.146007
    37  H    0.185511
    38  H    0.150074
    39  H    0.195707
    40  H    0.228968
    41  H    0.178935
    42  H    0.185522
    43  H    0.177500
    44  H    0.177092
    45  H    0.169665
    46  H    0.146880
    47  H    0.188274
    48  H    0.189536
    49  H    0.240399
    50  H    0.191119
    51  H    0.163673
    52  H    0.230003
    53  H    0.391659
    54  H    0.211589
    55  H    0.208836
    56  H    0.177958
    57  H    0.395940
    58  H    0.160258
    59  H    0.199469
    60  H    0.189095
    61  H    0.381180
    62  H    0.219481
    63  H    0.177227
    64  H    0.201102
 Sum of Mulliken atomic charges =   0.00000
 Mulliken charges with hydrogens summed into heavy atoms:
              1
     1  C    0.268873
     2  N   -0.392181
     3  C    0.823091
     4  O   -0.629250
     5  C    0.108424
     6  C    0.080781
     7  C    0.009017
     8  C   -0.009982
     9  C    0.007610
    10  C    0.004674
    11  C   -0.004488
    12  C   -0.006199
    13  C    0.043558
    14  C    0.034416
    15  C    0.109000
    16  C    0.052677
    17  N   -0.401396
    18  C    0.768162
    19  C    0.002785
    20  O   -0.615728
    21  C    0.830025
    22  O   -0.638308
    23  N   -0.419275
    24  C    0.274197
    25  N   -0.462591
    26  C    0.744656
    27  C    0.008849
    28  O   -0.591396
 Sum of Mulliken charges with hydrogens summed into heavy atoms =   0.00000
 Electronic spatial extent (au):  <R**2>=          14086.9964
 Charge=              0.0000 electrons
 Dipole moment (field-independent basis, Debye):
    X=             -0.8528    Y=             -0.4769    Z=              4.6299  Tot=              4.7319
 Quadrupole moment (field-independent basis, Debye-Ang):
   XX=           -195.0815   YY=           -163.6183   ZZ=           -177.1355
   XY=             20.4776   XZ=            -29.7814   YZ=             -6.9199
 Traceless Quadrupole moment (field-independent basis, Debye-Ang):
   XX=            -16.4697   YY=             14.9934   ZZ=              1.4763
   XY=             20.4776   XZ=            -29.7814   YZ=             -6.9199
 Octapole moment (field-independent basis, Debye-Ang**2):
  XXX=             50.8311  YYY=            -42.2153  ZZZ=             20.6640  XYY=            -48.8942
  XXY=             82.8921  XXZ=             68.0286  XZZ=              5.3237  YZZ=            -15.2954
  YYZ=             36.7355  XYZ=            -14.4357
 Hexadecapole moment (field-independent basis, Debye-Ang**3):
 XXXX=         -13498.7688 YYYY=          -3493.6406 ZZZZ=          -1720.3290 XXXY=            246.8409
 XXXZ=           -796.6359 YYYX=            103.5810 YYYZ=            -82.0947 ZZZX=            -53.3311
 ZZZY=             -7.2082 XXYY=          -2710.7852 XXZZ=          -2586.2310 YYZZ=           -847.5057
 XXYZ=           -158.2252 YYXZ=             22.4480 ZZXY=             37.5223
 N-N= 2.918777131711D+03 E-N=-8.869075061725D+03  KE= 1.294587433475D+03
 1\1\GINC-MOSURA\SP\RHF\6-31G(d)\C20H36N4O4\MARIE\05-Dec-2019\0\\#SP HF
 /6-31G* Geom=(ModRedundant)\\paramfit run\\0,1\C,0,0.,0.,0.\N,0,1.4481
 87,0.,0.\C,0,2.1232,0.47592,1.072365\O,0,1.590179,0.696732,2.124447\C,
 0,3.650505,0.594143,0.921539\C,0,4.198902,1.549248,1.986845\C,0,4.3077
 51,-0.809116,1.023981\C,0,4.133566,-1.622781,2.319066\C,0,2.832729,-2.
 433298,2.484965\C,0,2.579342,-3.423586,1.372579\C,0,2.834093,-4.721989
 ,1.375535\C,0,3.442731,-5.535663,2.492337\C,0,4.933195,-5.247132,2.746
 956\C,0,5.193658,-3.79019,3.152413\C,0,6.624694,-3.406375,3.610089\C,0
 ,6.63169,-1.895891,3.896162\N,0,6.930769,-4.133415,4.834533\C,0,8.1776
 11,-4.103328,5.389092\C,0,8.446337,-5.182669,6.412622\O,0,9.002966,-3.
 285022,5.091929\C,0,7.625578,-3.851456,2.51974\O,0,8.024004,-4.984702,
 2.489117\N,0,7.942706,-2.953336,1.562248\C,0,8.913007,-3.288307,0.5402
 35\N,0,3.997412,1.070275,-0.425452\C,0,3.587019,2.267163,-0.934086\C,0
 ,4.328148,2.727659,-2.172145\O,0,2.697134,2.905425,-0.447397\H,0,-0.40
 3259,1.006147,0.\H,0,-0.36496,-0.516002,0.875939\H,0,-0.345658,-0.5220
 86,-0.883346\H,0,1.904244,0.070913,-0.879357\H,0,3.932135,1.22176,2.98
 0082\H,0,5.28092,1.595925,1.9075\H,0,3.792711,2.540594,1.848395\H,0,5.
 374584,-0.64325,0.891407\H,0,3.984642,-1.403324,0.174983\H,0,4.961565,
 -2.324757,2.354635\H,0,4.250121,-0.975721,3.182259\H,0,1.985724,-1.764
 045,2.562723\H,0,2.895638,-2.94811,3.437249\H,0,2.135502,-3.009181,0.4
 81856\H,0,2.579482,-5.276386,0.485828\H,0,3.332022,-6.594053,2.2898\H,
 0,2.882893,-5.341812,3.406447\H,0,5.274754,-5.93023,3.519671\H,0,5.501
 577,-5.493093,1.85967\H,0,4.524834,-3.516667,3.965674\H,0,4.943823,-3.
 148137,2.315932\H,0,5.978787,-1.69932,4.738574\H,0,6.249023,-1.333915,
 3.050507\H,0,7.620514,-1.542013,4.146635\H,0,6.44518,-4.993344,4.95045
 5\H,0,9.26453,-4.873819,7.045262\H,0,8.73317,-6.090643,5.890669\H,0,7.
 572866,-5.397004,7.018833\H,0,7.795269,-1.98991,1.750353\H,0,8.93392,-
 2.490892,-0.190938\H,0,8.62522,-4.207346,0.051182\H,0,9.90716,-3.41777
 9,0.955747\H,0,4.82812,0.684785,-0.816437\H,0,3.710173,3.434604,-2.706
 288\H,0,4.588171,1.902533,-2.825678\H,0,5.244771,3.226201,-1.873716\\V
 ersion=EM64L-G09RevA.02\State=1-A\HF=-1295.4610723\RMSD=7.156e-09\Dipo
 le=0.2490555,-0.5601765,-1.757825\Quadrupole=-14.0313711,-6.7802958,20
 .8116669,19.6448251,-3.7653015,-12.170883\PG=C01 [X(C20H36N4O4)]\\@


 DO NOT LET SELFISH MEN OR GREEDY INTERESTS SKIN YOUR COUNTRY OF ITS
 BEAUTY, ITS RICHES, OR ITS ROMANCE. -- THEODORE ROOSEVELT
 Job cpu time:  0 days  0 hours  7 minutes 28.5 seconds.
 File lengths (MBytes):  RWF=    132 Int=      0 D2E=      0 Chk=     10 Scr=      1
 Normal termination of Gaussian 09 at Thu Dec  5 19:15:29 2019.
