 Entering Gaussian System, Link 0=g09
 Input=CHI6_-110.gau
 Output=CHI6_-110.log
 Initial command:
 /home/marie/Utilities//g09/l1.exe /tmp/g09/Gau-11920.inp -scrdir=/tmp/g09/
 Entering Link 1 = /home/marie/Utilities//g09/l1.exe PID=     11922.
  
 Copyright (c) 1988,1990,1992,1993,1995,1998,2003,2009, Gaussian, Inc.
                  All Rights Reserved.
  
 This is part of the Gaussian(R) 09 program.  It is based on
 the Gaussian(R) 03 system (copyright 2003, Gaussian, Inc.),
 the Gaussian(R) 98 system (copyright 1998, Gaussian, Inc.),
 the Gaussian(R) 94 system (copyright 1995, Gaussian, Inc.),
 the Gaussian 92(TM) system (copyright 1992, Gaussian, Inc.),
 the Gaussian 90(TM) system (copyright 1990, Gaussian, Inc.),
 the Gaussian 88(TM) system (copyright 1988, Gaussian, Inc.),
 the Gaussian 86(TM) system (copyright 1986, Carnegie Mellon
 University), and the Gaussian 82(TM) system (copyright 1983,
 Carnegie Mellon University). Gaussian is a federally registered
 trademark of Gaussian, Inc.
  
 This software contains proprietary and confidential information,
 including trade secrets, belonging to Gaussian, Inc.
  
 This software is provided under written license and may be
 used, copied, transmitted, or stored only in accord with that
 written license.
  
 The following legend is applicable only to US Government
 contracts under FAR:
  
                    RESTRICTED RIGHTS LEGEND
  
 Use, reproduction and disclosure by the US Government is
 subject to restrictions as set forth in subparagraphs (a)
 and (c) of the Commercial Computer Software - Restricted
 Rights clause in FAR 52.227-19.
  
 Gaussian, Inc.
 340 Quinnipiac St., Bldg. 40, Wallingford CT 06492
  
  
 ---------------------------------------------------------------
 Warning -- This program may not be used in any manner that
 competes with the business of Gaussian, Inc. or will provide
 assistance to any competitor of Gaussian, Inc.  The licensee
 of this program is prohibited from giving any competitor of
 Gaussian, Inc. access to this program.  By using this program,
 the user acknowledges that Gaussian, Inc. is engaged in the
 business of creating and licensing software in the field of
 computational chemistry and represents and warrants to the
 licensee that it is not a competitor of Gaussian, Inc. and that
 it will not use this program in any manner prohibited above.
 ---------------------------------------------------------------
  

 Cite this work as:
 Gaussian 09, Revision A.02,
 M. J. Frisch, G. W. Trucks, H. B. Schlegel, G. E. Scuseria, 
 M. A. Robb, J. R. Cheeseman, G. Scalmani, V. Barone, B. Mennucci, 
 G. A. Petersson, H. Nakatsuji, M. Caricato, X. Li, H. P. Hratchian, 
 A. F. Izmaylov, J. Bloino, G. Zheng, J. L. Sonnenberg, M. Hada, 
 M. Ehara, K. Toyota, R. Fukuda, J. Hasegawa, M. Ishida, T. Nakajima, 
 Y. Honda, O. Kitao, H. Nakai, T. Vreven, J. A. Montgomery, Jr., 
 J. E. Peralta, F. Ogliaro, M. Bearpark, J. J. Heyd, E. Brothers, 
 K. N. Kudin, V. N. Staroverov, R. Kobayashi, J. Normand, 
 K. Raghavachari, A. Rendell, J. C. Burant, S. S. Iyengar, J. Tomasi, 
 M. Cossi, N. Rega, J. M. Millam, M. Klene, J. E. Knox, J. B. Cross, 
 V. Bakken, C. Adamo, J. Jaramillo, R. Gomperts, R. E. Stratmann, 
 O. Yazyev, A. J. Austin, R. Cammi, C. Pomelli, J. W. Ochterski, 
 R. L. Martin, K. Morokuma, V. G. Zakrzewski, G. A. Voth, 
 P. Salvador, J. J. Dannenberg, S. Dapprich, A. D. Daniels, 
 O. Farkas, J. B. Foresman, J. V. Ortiz, J. Cioslowski, 
 and D. J. Fox, Gaussian, Inc., Wallingford CT, 2009.
 
 ******************************************
 Gaussian 09:  EM64L-G09RevA.02 11-Jun-2009
                 5-Dec-2019 
 ******************************************
 %chk=CHI6_-110
 %NoSave
 ---------------------------------
 #SP HF/6-31G* Geom=(ModRedundant)
 ---------------------------------
 1/18=120,38=1/1;
 2/12=2,17=6,18=5,40=1/2;
 3/5=1,6=6,7=1,11=9,16=1,25=1,30=1/1,2,3;
 4//1;
 5/5=2,38=5/2;
 6/7=2,8=2,9=2,10=2,28=1/1;
 99/5=1,9=1/99;
 ------------
 paramfit run
 ------------
 Symbolic Z-matrix:
 Charge =  0 Multiplicity = 1
 C-CT--0.3208          0.        0.        0. 
 N-N--0.5622           1.44819   0.        0. 
 C-C-0.8053            2.1232    0.47592   1.07237 
 O-O--0.6151           1.59018   0.69673   2.12445 
 C-CX-0.0839           3.65051   0.59414   0.92154 
 C-CU--0.3230          4.1989    1.54925   1.98685 
 C-CU--0.0657          4.30775  -0.80912   1.02398 
 C-CU--0.0109          4.13357  -1.62278   2.31907 
 C-CU-0.0816           2.83273  -2.4333    2.48497 
 C-CM--0.2354          2.57934  -3.42359   1.37258 
 C-CM--0.2653          2.83409  -4.72199   1.37554 
 C-CU-0.1214           3.44273  -5.53566   2.49234 
 C-CU--0.0354          4.86963  -6.03718   2.20599 
 C-CU--0.0984          5.86644  -4.89194   1.98305 
 C-CU-0.1300           7.37052  -5.24904   1.86111 
 C-CU--0.3561          8.13658  -3.94555   1.58269 
 N-N--0.7186           7.81746  -5.81338   3.12732 
 C-C-0.8537            9.06355  -6.35249   3.26759 
 C-CT--0.3868          9.24726  -7.22431   4.48865 
 O-O--0.6323           9.951    -6.15367   2.48524 
 C-C-0.7903            7.53255  -6.3278    0.76623 
 O-O--0.6136           7.35896  -7.48768   1.02795 
 N-N--0.5650           7.77044  -5.90448  -0.494 
 C-CT--0.3231          7.98307  -6.86399  -1.55811 
 N-N--0.7191           3.99741   1.07028  -0.42545 
 C-C-0.8539            3.58702   2.26716  -0.93409 
 C-CT--0.3903          4.32815   2.72766  -2.17214 
 O-O--0.6290           2.69713   2.90543  -0.4474 
 H-H1-0.1459          -0.40326   1.00615   0. 
 H-H1-0.1459          -0.36496  -0.516     0.87594 
 H-H1-0.1459          -0.34566  -0.52209  -0.88335 
 H-H-0.3572            1.90424   0.07091  -0.87936 
 H-HC-0.0997           3.93214   1.22176   2.98008 
 H-HC-0.0997           5.28092   1.59593   1.9075 
 H-HC-0.0997           3.79271   2.54059   1.8484 
 H-HC-0.0347           5.37458  -0.64325   0.89141 
 H-HC-0.0347           3.98464  -1.40332   0.17498 
 H-HC-0.0243           4.96157  -2.32476   2.35464 
 H-HC-0.0243           4.25012  -0.97572   3.18226 
 H-HC-0.0171           1.98572  -1.76405   2.56272 
 H-HC-0.0171           2.89564  -2.94811   3.43725 
 H-HA-0.1313           2.1355   -3.00918   0.48186 
 H-HA-0.1359           2.57948  -5.27639   0.48583 
 H-HC-0.0092           2.82001  -6.39368   2.71483 
 H-HC-0.0092           3.45531  -4.92776   3.39616 
 H-HC-0.0318           5.17577  -6.65847   3.04303 
 H-HC-0.0318           4.85296  -6.68859   1.34215 
 H-HC-0.0435           5.78325  -4.17696   2.79878 
 H-HC-0.0435           5.59009  -4.36373   1.07808 
 H-HC-0.1066           8.04565  -3.2983    2.4472 
 H-HC-0.1066           7.7156   -3.41574   0.73448 
 H-HC-0.1066           9.18615  -4.12927   1.40838 
 H-H-0.3529            7.11011  -6.25578   3.6683 
 H-HC-0.1047           10.29955  -7.29239   4.71908 
 H-HC-0.1047           8.87513  -8.21907   4.26259 
 H-HC-0.1047           8.7062   -6.84284   5.34779 
 H-H-0.3615            8.13926  -4.99221  -0.62452 
 H-H1-0.1469           8.0342   -6.33123  -2.49858 
 H-H1-0.1469           7.1579   -7.56011  -1.5919 
 H-H1-0.1469           8.90037  -7.42624  -1.41603 
 H-H-0.3570            4.82812   0.68479  -0.81644 
 H-HC-0.1060           3.71017   3.4346   -2.70629 
 H-HC-0.1060           4.58817   1.90253  -2.82568 
 H-HC-0.1060           5.24477   3.2262   -1.87372 
 
 The following ModRedundant input section has been read:
 D    *   11   12    * F                                                       
 Stoichiometry    C20H36N4O4
 Framework group  C1[X(C20H36N4O4)]
 Deg. of freedom   186
 Full point group                 C1      NOp   1
 Largest Abelian subgroup         C1      NOp   1
 Largest concise Abelian subgroup C1      NOp   1
                         Standard orientation:                         
 ---------------------------------------------------------------------
 Center     Atomic      Atomic             Coordinates (Angstroms)
 Number     Number       Type             X           Y           Z
 ---------------------------------------------------------------------
      1          6    20001001       -5.325245    2.082617    1.403772
      2          7    20001014       -4.505039    0.975501    0.957901
      3          6    20001002       -4.302520    0.775503   -0.365389
      4          8    20001024       -4.583336    1.597902   -1.192764
      5          6    90000001       -3.560776   -0.515433   -0.756137
      6          6    90000002       -3.815761   -0.826203   -2.234734
      7          6    90000002       -2.043361   -0.370481   -0.459416
      8          6    90000002       -1.245170    0.735884   -1.172494
      9          6    90000002       -1.300365    2.155927   -0.574942
     10          6    20001004       -0.858939    2.233379    0.867771
     11          6    20001004        0.327642    2.593228    1.329606
     12          6    90000002        1.535614    3.014891    0.527885
     13          6    90000002        2.692193    1.999182    0.542961
     14          6    90000002        2.295890    0.641362   -0.052174
     15          6    90000002        3.411287   -0.415336   -0.261745
     16          6    90000002        2.746877   -1.691013   -0.804573
     17          7    20001014        4.355784    0.095997   -1.245612
     18          6    20001002        5.520497   -0.559081   -1.523773
     19          6    20001001        6.554099    0.262649   -2.259459
     20          8    20001024        5.716192   -1.700709   -1.211475
     21          6    20001002        4.162276   -0.609296    1.075087
     22          8    20001024        5.043869    0.144177    1.389734
     23          7    20001014        3.719913   -1.581200    1.901948
     24          6    20001001        4.409673   -1.849773    3.147058
     25          7    20001014       -4.000113   -1.635151    0.089230
     26          6    20001002       -5.288676   -2.077408    0.149936
     27          6    20001001       -5.471668   -3.439140    0.787366
     28          8    20001024       -6.213070   -1.433575   -0.258862
     29          1    20001035       -6.360895    1.962243    1.107311
     30          1    20001035       -4.952901    3.005232    0.983220
     31          1    20001035       -5.268572    2.141943    2.483412
     32          1    20001029       -4.469327    0.171217    1.539396
     33          1    20001034       -3.516952   -0.002222   -2.864575
     34          1    20001034       -3.255342   -1.711661   -2.519568
     35          1    20001034       -4.867283   -1.005011   -2.405777
     36          1    20001034       -1.597200   -1.320862   -0.743909
     37          1    20001034       -1.909580   -0.281050    0.614076
     38          1    20001034       -0.206303    0.419171   -1.164361
     39          1    20001034       -1.535666    0.788711   -2.216619
     40          1    20001034       -2.302389    2.555939   -0.660400
     41          1    20001034       -0.672259    2.787871   -1.192974
     42          1    20001033       -1.610633    1.965211    1.592447
     43          1    20001033        0.460607    2.593638    2.400158
     44          1    20001034        1.913253    3.964136    0.888147
     45          1    20001034        1.225302    3.183542   -0.502580
     46          1    20001034        3.521774    2.434792   -0.006959
     47          1    20001034        3.042627    1.871539    1.558704
     48          1    20001034        1.828830    0.794994   -1.022630
     49          1    20001034        1.545060    0.189777    0.585537
     50          1    20001034        2.338956   -1.479013   -1.786019
     51          1    20001034        1.923547   -2.005255   -0.171515
     52          1    20001034        3.455876   -2.499455   -0.901940
     53          1    20001029        4.412042    1.086952   -1.305245
     54          1    20001034        7.248129   -0.401327   -2.751921
     55          1    20001034        7.098863    0.861576   -1.535828
     56          1    20001034        6.103478    0.929401   -2.986621
     57          1    20001029        3.172270   -2.314969    1.518566
     58          1    20001035        3.833984   -2.570831    3.712373
     59          1    20001035        4.494482   -0.938715    3.720998
     60          1    20001035        5.407084   -2.242752    2.978254
     61          1    20001029       -3.294008   -2.295135    0.328782
     62          1    20001034       -6.489512   -3.526309    1.138604
     63          1    20001034       -4.785519   -3.602559    1.610801
     64          1    20001034       -5.296285   -4.207906    0.041684
 ---------------------------------------------------------------------
 Rotational constants (GHZ):      0.2860576      0.0672670      0.0637362
 Standard basis: 6-31G(d) (6D, 7F)
 There are   492 symmetry adapted basis functions of A   symmetry.
 Integral buffers will be    131072 words long.
 Raffenetti 1 integral format.
 Two-electron integral symmetry is turned on.
   492 basis functions,   928 primitive gaussians,   492 cartesian basis functions
   108 alpha electrons      108 beta electrons
       nuclear repulsion energy      2783.3506435929 Hartrees.
 NAtoms=   64 NActive=   64 NUniq=   64 SFac= 7.50D-01 NAtFMM=   80 NAOKFM=F Big=T
 One-electron integrals computed using PRISM.
 NBasis=   492 RedAO= T  NBF=   492
 NBsUse=   492 1.00D-06 NBFU=   492
 Harris functional with IExCor=  205 diagonalized for initial guess.
 ExpMin= 1.61D-01 ExpMax= 5.48D+03 ExpMxC= 8.25D+02 IAcc=1 IRadAn=         1 AccDes= 0.00D+00
 HarFok:  IExCor=  205 AccDes= 0.00D+00 IRadAn=         1 IDoV= 1
 ScaDFX=  1.000000  1.000000  1.000000  1.000000
 FoFCou: FMM=F IPFlag=           0 FMFlag=      100000 FMFlg1=           1
         NFxFlg=           0 DoJE=T BraDBF=F KetDBF=T FulRan=T
         Omega=  0.000000  0.000000  1.000000  0.000000  0.000000 ICntrl=     500 IOpCl=  0
         NMat0=    1 NMatS0=    1 NMatT0=    0 NMatD0=    1 NMtDS0=    0 NMtDT0=    0
         I1Cent=           4 NGrid=           0.
 Petite list used in FoFCou.
 Initial guess orbital symmetries:
       Occupied  (A) (A) (A) (A) (A) (A) (A) (A) (A) (A) (A) (A)
                 (A) (A) (A) (A) (A) (A) (A) (A) (A) (A) (A) (A)
                 (A) (A) (A) (A) (A) (A) (A) (A) (A) (A) (A) (A)
                 (A) (A) (A) (A) (A) (A) (A) (A) (A) (A) (A) (A)
                 (A) (A) (A) (A) (A) (A) (A) (A) (A) (A) (A) (A)
                 (A) (A) (A) (A) (A) (A) (A) (A) (A) (A) (A) (A)
                 (A) (A) (A) (A) (A) (A) (A) (A) (A) (A) (A) (A)
                 (A) (A) (A) (A) (A) (A) (A) (A) (A) (A) (A) (A)
                 (A) (A) (A) (A) (A) (A) (A) (A) (A) (A) (A) (A)
       Virtual   (A) (A) (A) (A) (A) (A) (A) (A) (A) (A) (A) (A)
                 (A) (A) (A) (A) (A) (A) (A) (A) (A) (A) (A) (A)
                 (A) (A) (A) (A) (A) (A) (A) (A) (A) (A) (A) (A)
                 (A) (A) (A) (A) (A) (A) (A) (A) (A) (A) (A) (A)
                 (A) (A) (A) (A) (A) (A) (A) (A) (A) (A) (A) (A)
                 (A) (A) (A) (A) (A) (A) (A) (A) (A) (A) (A) (A)
                 (A) (A) (A) (A) (A) (A) (A) (A) (A) (A) (A) (A)
                 (A) (A) (A) (A) (A) (A) (A) (A) (A) (A) (A) (A)
                 (A) (A) (A) (A) (A) (A) (A) (A) (A) (A) (A) (A)
                 (A) (A) (A) (A) (A) (A) (A) (A) (A) (A) (A) (A)
                 (A) (A) (A) (A) (A) (A) (A) (A) (A) (A) (A) (A)
                 (A) (A) (A) (A) (A) (A) (A) (A) (A) (A) (A) (A)
                 (A) (A) (A) (A) (A) (A) (A) (A) (A) (A) (A) (A)
                 (A) (A) (A) (A) (A) (A) (A) (A) (A) (A) (A) (A)
                 (A) (A) (A) (A) (A) (A) (A) (A) (A) (A) (A) (A)
                 (A) (A) (A) (A) (A) (A) (A) (A) (A) (A) (A) (A)
                 (A) (A) (A) (A) (A) (A) (A) (A) (A) (A) (A) (A)
                 (A) (A) (A) (A) (A) (A) (A) (A) (A) (A) (A) (A)
                 (A) (A) (A) (A) (A) (A) (A) (A) (A) (A) (A) (A)
                 (A) (A) (A) (A) (A) (A) (A) (A) (A) (A) (A) (A)
                 (A) (A) (A) (A) (A) (A) (A) (A) (A) (A) (A) (A)
                 (A) (A) (A) (A) (A) (A) (A) (A) (A) (A) (A) (A)
                 (A) (A) (A) (A) (A) (A) (A) (A) (A) (A) (A) (A)
                 (A) (A) (A) (A) (A) (A) (A) (A) (A) (A) (A) (A)
                 (A) (A) (A) (A) (A) (A) (A) (A) (A) (A) (A) (A)
                 (A) (A) (A) (A) (A) (A) (A) (A) (A) (A) (A) (A)
                 (A) (A) (A) (A) (A) (A) (A) (A) (A) (A) (A) (A)
                 (A) (A) (A) (A) (A) (A) (A) (A) (A) (A) (A) (A)
                 (A) (A) (A) (A) (A) (A) (A) (A) (A) (A) (A) (A)
                 (A) (A) (A) (A) (A) (A) (A) (A) (A) (A) (A) (A)
                 (A) (A) (A) (A) (A) (A) (A) (A) (A) (A) (A) (A)
                 (A) (A) (A) (A) (A) (A) (A) (A) (A) (A) (A) (A)
 The electronic state of the initial guess is 1-A.
 Requested convergence on RMS density matrix=1.00D-08 within 128 cycles.
 Requested convergence on MAX density matrix=1.00D-06.
 Requested convergence on             energy=1.00D-06.
 No special actions if energy rises.
 Integral accuracy reduced to 1.0D-05 until final iterations.
 Initial convergence to 1.0D-05 achieved.  Increase integral accuracy.
 SCF Done:  E(RHF) =  -1295.61948511     A.U. after   14 cycles
             Convg  =    0.6656D-08             -V/T =  2.0012

 **********************************************************************

            Population analysis using the SCF density.

 **********************************************************************

 Orbital symmetries:
       Occupied  (A) (A) (A) (A) (A) (A) (A) (A) (A) (A) (A) (A)
                 (A) (A) (A) (A) (A) (A) (A) (A) (A) (A) (A) (A)
                 (A) (A) (A) (A) (A) (A) (A) (A) (A) (A) (A) (A)
                 (A) (A) (A) (A) (A) (A) (A) (A) (A) (A) (A) (A)
                 (A) (A) (A) (A) (A) (A) (A) (A) (A) (A) (A) (A)
                 (A) (A) (A) (A) (A) (A) (A) (A) (A) (A) (A) (A)
                 (A) (A) (A) (A) (A) (A) (A) (A) (A) (A) (A) (A)
                 (A) (A) (A) (A) (A) (A) (A) (A) (A) (A) (A) (A)
                 (A) (A) (A) (A) (A) (A) (A) (A) (A) (A) (A) (A)
       Virtual   (A) (A) (A) (A) (A) (A) (A) (A) (A) (A) (A) (A)
                 (A) (A) (A) (A) (A) (A) (A) (A) (A) (A) (A) (A)
                 (A) (A) (A) (A) (A) (A) (A) (A) (A) (A) (A) (A)
                 (A) (A) (A) (A) (A) (A) (A) (A) (A) (A) (A) (A)
                 (A) (A) (A) (A) (A) (A) (A) (A) (A) (A) (A) (A)
                 (A) (A) (A) (A) (A) (A) (A) (A) (A) (A) (A) (A)
                 (A) (A) (A) (A) (A) (A) (A) (A) (A) (A) (A) (A)
                 (A) (A) (A) (A) (A) (A) (A) (A) (A) (A) (A) (A)
                 (A) (A) (A) (A) (A) (A) (A) (A) (A) (A) (A) (A)
                 (A) (A) (A) (A) (A) (A) (A) (A) (A) (A) (A) (A)
                 (A) (A) (A) (A) (A) (A) (A) (A) (A) (A) (A) (A)
                 (A) (A) (A) (A) (A) (A) (A) (A) (A) (A) (A) (A)
                 (A) (A) (A) (A) (A) (A) (A) (A) (A) (A) (A) (A)
                 (A) (A) (A) (A) (A) (A) (A) (A) (A) (A) (A) (A)
                 (A) (A) (A) (A) (A) (A) (A) (A) (A) (A) (A) (A)
                 (A) (A) (A) (A) (A) (A) (A) (A) (A) (A) (A) (A)
                 (A) (A) (A) (A) (A) (A) (A) (A) (A) (A) (A) (A)
                 (A) (A) (A) (A) (A) (A) (A) (A) (A) (A) (A) (A)
                 (A) (A) (A) (A) (A) (A) (A) (A) (A) (A) (A) (A)
                 (A) (A) (A) (A) (A) (A) (A) (A) (A) (A) (A) (A)
                 (A) (A) (A) (A) (A) (A) (A) (A) (A) (A) (A) (A)
                 (A) (A) (A) (A) (A) (A) (A) (A) (A) (A) (A) (A)
                 (A) (A) (A) (A) (A) (A) (A) (A) (A) (A) (A) (A)
                 (A) (A) (A) (A) (A) (A) (A) (A) (A) (A) (A) (A)
                 (A) (A) (A) (A) (A) (A) (A) (A) (A) (A) (A) (A)
                 (A) (A) (A) (A) (A) (A) (A) (A) (A) (A) (A) (A)
                 (A) (A) (A) (A) (A) (A) (A) (A) (A) (A) (A) (A)
                 (A) (A) (A) (A) (A) (A) (A) (A) (A) (A) (A) (A)
                 (A) (A) (A) (A) (A) (A) (A) (A) (A) (A) (A) (A)
                 (A) (A) (A) (A) (A) (A) (A) (A) (A) (A) (A) (A)
                 (A) (A) (A) (A) (A) (A) (A) (A) (A) (A) (A) (A)
                 (A) (A) (A) (A) (A) (A) (A) (A) (A) (A) (A) (A)
 The electronic state is 1-A.
 Alpha  occ. eigenvalues --  -20.53821 -20.52361 -20.52051 -20.52029 -15.59812
 Alpha  occ. eigenvalues --  -15.58434 -15.57842 -15.57691 -11.36142 -11.34552
 Alpha  occ. eigenvalues --  -11.34134 -11.34044 -11.29251 -11.28932 -11.25563
 Alpha  occ. eigenvalues --  -11.25001 -11.24515 -11.24307 -11.23572 -11.22888
 Alpha  occ. eigenvalues --  -11.22748 -11.22682 -11.22609 -11.22384 -11.22327
 Alpha  occ. eigenvalues --  -11.22178 -11.21849 -11.21059  -1.40759  -1.39750
 Alpha  occ. eigenvalues --   -1.38884  -1.38482  -1.25632  -1.23884  -1.23134
 Alpha  occ. eigenvalues --   -1.22240  -1.11083  -1.09453  -1.07441  -1.04473
 Alpha  occ. eigenvalues --   -1.01487  -0.99572  -0.99029  -0.95660  -0.95551
 Alpha  occ. eigenvalues --   -0.95017  -0.92419  -0.87452  -0.86096  -0.83048
 Alpha  occ. eigenvalues --   -0.81564  -0.79880  -0.79014  -0.77347  -0.77325
 Alpha  occ. eigenvalues --   -0.72299  -0.71596  -0.71325  -0.69145  -0.68357
 Alpha  occ. eigenvalues --   -0.66659  -0.66072  -0.64823  -0.64456  -0.64020
 Alpha  occ. eigenvalues --   -0.62789  -0.62556  -0.62124  -0.61769  -0.61450
 Alpha  occ. eigenvalues --   -0.61025  -0.60297  -0.59707  -0.59130  -0.58577
 Alpha  occ. eigenvalues --   -0.58414  -0.57928  -0.57041  -0.56907  -0.56462
 Alpha  occ. eigenvalues --   -0.55823  -0.55422  -0.55193  -0.54691  -0.54343
 Alpha  occ. eigenvalues --   -0.53593  -0.53016  -0.52850  -0.51996  -0.51859
 Alpha  occ. eigenvalues --   -0.51197  -0.50290  -0.50087  -0.49778  -0.48855
 Alpha  occ. eigenvalues --   -0.48136  -0.46980  -0.46954  -0.44801  -0.43046
 Alpha  occ. eigenvalues --   -0.42170  -0.41829  -0.41384  -0.39475  -0.39272
 Alpha  occ. eigenvalues --   -0.38727  -0.38477  -0.34721
 Alpha virt. eigenvalues --    0.17576   0.18601   0.19071   0.19681   0.19777
 Alpha virt. eigenvalues --    0.21134   0.21455   0.22820   0.23150   0.23740
 Alpha virt. eigenvalues --    0.25098   0.25555   0.26090   0.26642   0.27138
 Alpha virt. eigenvalues --    0.27458   0.28027   0.28528   0.29021   0.29305
 Alpha virt. eigenvalues --    0.29377   0.30061   0.30918   0.30956   0.31012
 Alpha virt. eigenvalues --    0.32275   0.32484   0.32729   0.33106   0.33647
 Alpha virt. eigenvalues --    0.33718   0.33903   0.34319   0.34809   0.35467
 Alpha virt. eigenvalues --    0.35856   0.36404   0.36831   0.37097   0.37742
 Alpha virt. eigenvalues --    0.38441   0.38764   0.39021   0.39323   0.40039
 Alpha virt. eigenvalues --    0.40177   0.41489   0.41797   0.42513   0.43300
 Alpha virt. eigenvalues --    0.44219   0.44556   0.44745   0.46629   0.46876
 Alpha virt. eigenvalues --    0.47931   0.48727   0.49321   0.51917   0.52841
 Alpha virt. eigenvalues --    0.53701   0.55132   0.57363   0.58874   0.59736
 Alpha virt. eigenvalues --    0.62767   0.63631   0.64146   0.68049   0.69914
 Alpha virt. eigenvalues --    0.70429   0.71334   0.71476   0.72167   0.72999
 Alpha virt. eigenvalues --    0.73587   0.74528   0.74699   0.75918   0.75961
 Alpha virt. eigenvalues --    0.76707   0.76951   0.78047   0.78266   0.79528
 Alpha virt. eigenvalues --    0.79865   0.80316   0.80640   0.81527   0.82601
 Alpha virt. eigenvalues --    0.83131   0.83594   0.84042   0.85173   0.85607
 Alpha virt. eigenvalues --    0.86418   0.88679   0.89581   0.89835   0.90923
 Alpha virt. eigenvalues --    0.91457   0.92142   0.92615   0.93348   0.93825
 Alpha virt. eigenvalues --    0.94874   0.95270   0.96556   0.97227   0.97639
 Alpha virt. eigenvalues --    0.98154   0.98740   0.99229   0.99948   1.00570
 Alpha virt. eigenvalues --    1.01356   1.02185   1.02455   1.02525   1.03765
 Alpha virt. eigenvalues --    1.04224   1.04602   1.05426   1.05934   1.07019
 Alpha virt. eigenvalues --    1.07494   1.08385   1.09110   1.09929   1.10958
 Alpha virt. eigenvalues --    1.11542   1.12025   1.12506   1.13146   1.13943
 Alpha virt. eigenvalues --    1.14146   1.14360   1.14818   1.14952   1.15572
 Alpha virt. eigenvalues --    1.16462   1.16599   1.17311   1.17783   1.18147
 Alpha virt. eigenvalues --    1.18206   1.18489   1.18685   1.19165   1.19324
 Alpha virt. eigenvalues --    1.19810   1.20529   1.20873   1.21180   1.21536
 Alpha virt. eigenvalues --    1.21858   1.21958   1.22451   1.22643   1.22751
 Alpha virt. eigenvalues --    1.23057   1.23941   1.25022   1.25333   1.25548
 Alpha virt. eigenvalues --    1.26708   1.26921   1.27677   1.28272   1.29342
 Alpha virt. eigenvalues --    1.29683   1.30636   1.31975   1.32433   1.32982
 Alpha virt. eigenvalues --    1.33972   1.35054   1.35582   1.37486   1.38088
 Alpha virt. eigenvalues --    1.38885   1.40248   1.41277   1.41732   1.43508
 Alpha virt. eigenvalues --    1.43886   1.45073   1.46479   1.47815   1.48861
 Alpha virt. eigenvalues --    1.50135   1.50256   1.54120   1.54520   1.56436
 Alpha virt. eigenvalues --    1.56926   1.57350   1.59574   1.60299   1.61360
 Alpha virt. eigenvalues --    1.61714   1.64449   1.64592   1.66673   1.68203
 Alpha virt. eigenvalues --    1.69305   1.70701   1.71926   1.72296   1.73317
 Alpha virt. eigenvalues --    1.73597   1.76366   1.77876   1.78952   1.79279
 Alpha virt. eigenvalues --    1.80487   1.81552   1.83653   1.84998   1.87830
 Alpha virt. eigenvalues --    1.89698   1.90653   1.92065   1.94355   1.95059
 Alpha virt. eigenvalues --    1.96302   1.97305   1.98116   1.99743   1.99993
 Alpha virt. eigenvalues --    2.02774   2.05300   2.05688   2.07044   2.07657
 Alpha virt. eigenvalues --    2.09050   2.10836   2.11351   2.11964   2.12269
 Alpha virt. eigenvalues --    2.12700   2.13178   2.14190   2.15239   2.15677
 Alpha virt. eigenvalues --    2.16077   2.16671   2.18440   2.18967   2.19400
 Alpha virt. eigenvalues --    2.19606   2.20349   2.21926   2.22961   2.23212
 Alpha virt. eigenvalues --    2.24039   2.25105   2.26253   2.26381   2.27553
 Alpha virt. eigenvalues --    2.27750   2.29546   2.29855   2.31159   2.31462
 Alpha virt. eigenvalues --    2.33139   2.33686   2.34395   2.35015   2.35335
 Alpha virt. eigenvalues --    2.36353   2.37484   2.37877   2.38697   2.39785
 Alpha virt. eigenvalues --    2.40703   2.40961   2.42049   2.43327   2.45044
 Alpha virt. eigenvalues --    2.45559   2.46087   2.47765   2.49649   2.50132
 Alpha virt. eigenvalues --    2.51923   2.52208   2.53844   2.54817   2.55188
 Alpha virt. eigenvalues --    2.56206   2.56718   2.57439   2.58274   2.60332
 Alpha virt. eigenvalues --    2.62286   2.62663   2.63485   2.64569   2.65030
 Alpha virt. eigenvalues --    2.65499   2.68947   2.69663   2.70183   2.70874
 Alpha virt. eigenvalues --    2.71443   2.72769   2.73845   2.74857   2.76527
 Alpha virt. eigenvalues --    2.76815   2.77829   2.78452   2.79302   2.80623
 Alpha virt. eigenvalues --    2.81425   2.83239   2.83424   2.85367   2.86971
 Alpha virt. eigenvalues --    2.87459   2.88249   2.89981   2.92779   2.95810
 Alpha virt. eigenvalues --    2.96922   2.97313   2.98112   2.98375   3.01789
 Alpha virt. eigenvalues --    3.03337   3.04173   3.05607   3.05998   3.06484
 Alpha virt. eigenvalues --    3.11096   3.11332   3.12855   3.13865   3.15410
 Alpha virt. eigenvalues --    3.16768   3.19007   3.22529   3.29413   3.30394
 Alpha virt. eigenvalues --    3.34018   3.34454   3.38577   3.40124   3.40884
 Alpha virt. eigenvalues --    3.42454   3.42864   3.53107   3.55297   3.57265
 Alpha virt. eigenvalues --    3.59975   4.38187   4.40788   4.44623   4.46900
 Alpha virt. eigenvalues --    4.48963   4.51671   4.55740   4.58447   4.61550
 Alpha virt. eigenvalues --    4.63731   4.66118   4.67190   4.68376   4.69851
 Alpha virt. eigenvalues --    4.71658   4.77276   4.78684   4.82830   4.84191
 Alpha virt. eigenvalues --    4.87737   4.88962   4.93330   4.96113   4.99466
 Alpha virt. eigenvalues --    5.02244   5.12386   5.21881   5.23689
          Condensed to atoms (all electrons):
 Mulliken atomic charges:
              1
     1  C   -0.280020
     2  N   -0.783418
     3  C    0.822087
     4  O   -0.628322
     5  C    0.102756
     6  C   -0.472745
     7  C   -0.333907
     8  C   -0.318586
     9  C   -0.374134
    10  C   -0.182966
    11  C   -0.171723
    12  C   -0.353879
    13  C   -0.314932
    14  C   -0.329836
    15  C    0.093887
    16  C   -0.510032
    17  N   -0.787924
    18  C    0.767139
    19  C   -0.595871
    20  O   -0.614597
    21  C    0.819835
    22  O   -0.638850
    23  N   -0.807526
    24  C   -0.275163
    25  N   -0.843011
    26  C    0.744685
    27  C   -0.588743
    28  O   -0.591234
    29  H    0.187146
    30  H    0.198520
    31  H    0.163372
    32  H    0.391332
    33  H    0.198661
    34  H    0.144155
    35  H    0.213214
    36  H    0.159321
    37  H    0.181367
    38  H    0.167989
    39  H    0.179845
    40  H    0.213741
    41  H    0.172960
    42  H    0.182493
    43  H    0.173557
    44  H    0.178914
    45  H    0.164519
    46  H    0.154054
    47  H    0.191078
    48  H    0.178322
    49  H    0.185677
    50  H    0.184624
    51  H    0.142948
    52  H    0.227661
    53  H    0.390745
    54  H    0.211656
    55  H    0.209507
    56  H    0.177656
    57  H    0.394294
    58  H    0.163528
    59  H    0.198069
    60  H    0.186672
    61  H    0.381755
    62  H    0.219310
    63  H    0.176780
    64  H    0.201588
 Sum of Mulliken atomic charges =   0.00000
 Mulliken charges with hydrogens summed into heavy atoms:
              1
     1  C    0.269018
     2  N   -0.392086
     3  C    0.822087
     4  O   -0.628322
     5  C    0.102756
     6  C    0.083285
     7  C    0.006781
     8  C    0.029248
     9  C    0.012567
    10  C   -0.000473
    11  C    0.001834
    12  C   -0.010446
    13  C    0.030200
    14  C    0.034163
    15  C    0.093887
    16  C    0.045201
    17  N   -0.397179
    18  C    0.767139
    19  C    0.002948
    20  O   -0.614597
    21  C    0.819835
    22  O   -0.638850
    23  N   -0.413233
    24  C    0.273105
    25  N   -0.461256
    26  C    0.744685
    27  C    0.008935
    28  O   -0.591234
 Sum of Mulliken charges with hydrogens summed into heavy atoms =   0.00000
 Electronic spatial extent (au):  <R**2>=          17290.3184
 Charge=              0.0000 electrons
 Dipole moment (field-independent basis, Debye):
    X=              0.0599    Y=             -2.9746    Z=              2.8576  Tot=              4.1253
 Quadrupole moment (field-independent basis, Debye-Ang):
   XX=           -224.7959   YY=           -162.7847   ZZ=           -165.0876
   XY=             24.5121   XZ=            -24.0385   YZ=             -7.5706
 Traceless Quadrupole moment (field-independent basis, Debye-Ang):
   XX=            -40.5732   YY=             21.4380   ZZ=             19.1352
   XY=             24.5121   XZ=            -24.0385   YZ=             -7.5706
 Octapole moment (field-independent basis, Debye-Ang**2):
  XXX=             71.6901  YYY=            -56.4783  ZZZ=             19.9940  XYY=            -37.1266
  XXY=             24.7501  XXZ=             63.9399  XZZ=             16.3463  YZZ=            -15.2306
  YYZ=             30.2151  XYZ=            -57.4166
 Hexadecapole moment (field-independent basis, Debye-Ang**3):
 XXXX=         -19808.9961 YYYY=          -3068.6808 ZZZZ=          -1948.0130 XXXY=            520.9253
 XXXZ=           -895.8560 YYYX=            195.8061 YYYZ=            -55.8802 ZZZX=              4.2378
 ZZZY=            -36.9612 XXYY=          -3344.5993 XXZZ=          -3078.0600 YYZZ=           -841.8042
 XXYZ=           -179.8649 YYXZ=              6.9333 ZZXY=            -14.0429
 N-N= 2.783350643593D+03 E-N=-8.598169902240D+03  KE= 1.294036505984D+03
 1\1\GINC-MOSURA\SP\RHF\6-31G(d)\C20H36N4O4\MARIE\05-Dec-2019\0\\#SP HF
 /6-31G* Geom=(ModRedundant)\\paramfit run\\0,1\C,0,0.,0.,0.\N,0,1.4481
 87,0.,0.\C,0,2.1232,0.47592,1.072365\O,0,1.590179,0.696732,2.124447\C,
 0,3.650505,0.594143,0.921539\C,0,4.198902,1.549248,1.986845\C,0,4.3077
 51,-0.809116,1.023981\C,0,4.133566,-1.622781,2.319066\C,0,2.832729,-2.
 433298,2.484965\C,0,2.579342,-3.423586,1.372579\C,0,2.834093,-4.721989
 ,1.375535\C,0,3.442731,-5.535663,2.492337\C,0,4.869631,-6.037184,2.205
 985\C,0,5.866441,-4.891939,1.983051\C,0,7.370519,-5.249043,1.861106\C,
 0,8.13658,-3.945552,1.582691\N,0,7.81746,-5.813382,3.127319\C,0,9.0635
 54,-6.352486,3.267588\C,0,9.247258,-7.224309,4.488646\O,0,9.950995,-6.
 153672,2.485243\C,0,7.532547,-6.327805,0.766234\O,0,7.35896,-7.487676,
 1.027951\N,0,7.770436,-5.904482,-0.493999\C,0,7.983066,-6.863987,-1.55
 8114\N,0,3.997412,1.070275,-0.425452\C,0,3.587019,2.267163,-0.934086\C
 ,0,4.328148,2.727659,-2.172145\O,0,2.697134,2.905425,-0.447397\H,0,-0.
 403259,1.006147,0.\H,0,-0.36496,-0.516002,0.875939\H,0,-0.345658,-0.52
 2086,-0.883346\H,0,1.904244,0.070913,-0.879357\H,0,3.932135,1.22176,2.
 980082\H,0,5.28092,1.595925,1.9075\H,0,3.792711,2.540594,1.848395\H,0,
 5.374584,-0.64325,0.891407\H,0,3.984642,-1.403324,0.174983\H,0,4.96156
 5,-2.324757,2.354635\H,0,4.250121,-0.975721,3.182259\H,0,1.985724,-1.7
 64045,2.562723\H,0,2.895638,-2.94811,3.437249\H,0,2.135502,-3.009181,0
 .481856\H,0,2.579482,-5.276386,0.485828\H,0,2.820012,-6.393676,2.71482
 6\H,0,3.455311,-4.92776,3.396157\H,0,5.175773,-6.658473,3.043034\H,0,4
 .852957,-6.688594,1.342146\H,0,5.783251,-4.176962,2.798784\H,0,5.59008
 5,-4.363729,1.078081\H,0,8.045647,-3.298296,2.447197\H,0,7.715598,-3.4
 15742,0.734482\H,0,9.186153,-4.129267,1.40838\H,0,7.110114,-6.255777,3
 .6683\H,0,10.299554,-7.292393,4.719078\H,0,8.875131,-8.219067,4.262587
 \H,0,8.7062,-6.84284,5.347785\H,0,8.13926,-4.992208,-0.624515\H,0,8.03
 4201,-6.331226,-2.498578\H,0,7.157903,-7.560113,-1.591897\H,0,8.900365
 ,-7.426241,-1.416031\H,0,4.82812,0.684785,-0.816437\H,0,3.710173,3.434
 604,-2.706288\H,0,4.588171,1.902533,-2.825678\H,0,5.244771,3.226201,-1
 .873716\\Version=EM64L-G09RevA.02\State=1-A\HF=-1295.6194851\RMSD=6.65
 6e-09\Dipole=0.5618859,0.0096968,-1.5226187\Quadrupole=-11.2105664,-15
 .5737461,26.7843125,24.789986,3.8465111,-13.9372659\PG=C01 [X(C20H36N4
 O4)]\\@


 EDUCATION DOESN'T COST 
           ... IT PAYS!

 -- POSTMARK, UNIV. OF MISSISSIPPI, DEC 78
 Job cpu time:  0 days  0 hours  6 minutes 13.3 seconds.
 File lengths (MBytes):  RWF=    132 Int=      0 D2E=      0 Chk=     10 Scr=      1
 Normal termination of Gaussian 09 at Thu Dec  5 18:47:09 2019.
