 Entering Gaussian System, Link 0=g09
 Input=CHI6_140.gau
 Output=CHI6_140.log
 Initial command:
 /home/marie/Utilities//g09/l1.exe /tmp/g09/Gau-12540.inp -scrdir=/tmp/g09/
 Entering Link 1 = /home/marie/Utilities//g09/l1.exe PID=     12542.
  
 Copyright (c) 1988,1990,1992,1993,1995,1998,2003,2009, Gaussian, Inc.
                  All Rights Reserved.
  
 This is part of the Gaussian(R) 09 program.  It is based on
 the Gaussian(R) 03 system (copyright 2003, Gaussian, Inc.),
 the Gaussian(R) 98 system (copyright 1998, Gaussian, Inc.),
 the Gaussian(R) 94 system (copyright 1995, Gaussian, Inc.),
 the Gaussian 92(TM) system (copyright 1992, Gaussian, Inc.),
 the Gaussian 90(TM) system (copyright 1990, Gaussian, Inc.),
 the Gaussian 88(TM) system (copyright 1988, Gaussian, Inc.),
 the Gaussian 86(TM) system (copyright 1986, Carnegie Mellon
 University), and the Gaussian 82(TM) system (copyright 1983,
 Carnegie Mellon University). Gaussian is a federally registered
 trademark of Gaussian, Inc.
  
 This software contains proprietary and confidential information,
 including trade secrets, belonging to Gaussian, Inc.
  
 This software is provided under written license and may be
 used, copied, transmitted, or stored only in accord with that
 written license.
  
 The following legend is applicable only to US Government
 contracts under FAR:
  
                    RESTRICTED RIGHTS LEGEND
  
 Use, reproduction and disclosure by the US Government is
 subject to restrictions as set forth in subparagraphs (a)
 and (c) of the Commercial Computer Software - Restricted
 Rights clause in FAR 52.227-19.
  
 Gaussian, Inc.
 340 Quinnipiac St., Bldg. 40, Wallingford CT 06492
  
  
 ---------------------------------------------------------------
 Warning -- This program may not be used in any manner that
 competes with the business of Gaussian, Inc. or will provide
 assistance to any competitor of Gaussian, Inc.  The licensee
 of this program is prohibited from giving any competitor of
 Gaussian, Inc. access to this program.  By using this program,
 the user acknowledges that Gaussian, Inc. is engaged in the
 business of creating and licensing software in the field of
 computational chemistry and represents and warrants to the
 licensee that it is not a competitor of Gaussian, Inc. and that
 it will not use this program in any manner prohibited above.
 ---------------------------------------------------------------
  

 Cite this work as:
 Gaussian 09, Revision A.02,
 M. J. Frisch, G. W. Trucks, H. B. Schlegel, G. E. Scuseria, 
 M. A. Robb, J. R. Cheeseman, G. Scalmani, V. Barone, B. Mennucci, 
 G. A. Petersson, H. Nakatsuji, M. Caricato, X. Li, H. P. Hratchian, 
 A. F. Izmaylov, J. Bloino, G. Zheng, J. L. Sonnenberg, M. Hada, 
 M. Ehara, K. Toyota, R. Fukuda, J. Hasegawa, M. Ishida, T. Nakajima, 
 Y. Honda, O. Kitao, H. Nakai, T. Vreven, J. A. Montgomery, Jr., 
 J. E. Peralta, F. Ogliaro, M. Bearpark, J. J. Heyd, E. Brothers, 
 K. N. Kudin, V. N. Staroverov, R. Kobayashi, J. Normand, 
 K. Raghavachari, A. Rendell, J. C. Burant, S. S. Iyengar, J. Tomasi, 
 M. Cossi, N. Rega, J. M. Millam, M. Klene, J. E. Knox, J. B. Cross, 
 V. Bakken, C. Adamo, J. Jaramillo, R. Gomperts, R. E. Stratmann, 
 O. Yazyev, A. J. Austin, R. Cammi, C. Pomelli, J. W. Ochterski, 
 R. L. Martin, K. Morokuma, V. G. Zakrzewski, G. A. Voth, 
 P. Salvador, J. J. Dannenberg, S. Dapprich, A. D. Daniels, 
 O. Farkas, J. B. Foresman, J. V. Ortiz, J. Cioslowski, 
 and D. J. Fox, Gaussian, Inc., Wallingford CT, 2009.
 
 ******************************************
 Gaussian 09:  EM64L-G09RevA.02 11-Jun-2009
                 5-Dec-2019 
 ******************************************
 %chk=CHI6_140
 %NoSave
 ---------------------------------
 #SP HF/6-31G* Geom=(ModRedundant)
 ---------------------------------
 1/18=120,38=1/1;
 2/12=2,17=6,18=5,40=1/2;
 3/5=1,6=6,7=1,11=9,16=1,25=1,30=1/1,2,3;
 4//1;
 5/5=2,38=5/2;
 6/7=2,8=2,9=2,10=2,28=1/1;
 99/5=1,9=1/99;
 ------------
 paramfit run
 ------------
 Symbolic Z-matrix:
 Charge =  0 Multiplicity = 1
 C-CT--0.3208          0.        0.        0. 
 N-N--0.5622           1.44819   0.        0. 
 C-C-0.8053            2.1232    0.47592   1.07237 
 O-O--0.6151           1.59018   0.69673   2.12445 
 C-CX-0.0839           3.65051   0.59414   0.92154 
 C-CU--0.3230          4.1989    1.54925   1.98685 
 C-CU--0.0657          4.30775  -0.80912   1.02398 
 C-CU--0.0109          4.13357  -1.62278   2.31907 
 C-CU-0.0816           2.83273  -2.4333    2.48497 
 C-CM--0.2354          2.57934  -3.42359   1.37258 
 C-CM--0.2653          2.83409  -4.72199   1.37554 
 C-CU-0.1214           3.44273  -5.53566   2.49234 
 C-CU--0.0354          2.8039   -6.92264   2.68665 
 C-CU--0.0984          2.94038  -7.81662   1.44686 
 C-CU-0.1300           2.4993   -9.29851   1.5655 
 C-CU--0.3561          2.67795  -9.94862   0.18387 
 N-N--0.7186           3.36404  -9.96409   2.53026 
 C-C-0.8537            3.1192   -11.24109   2.94545 
 C-CT--0.3868          3.85156  -11.65459   4.20142 
 O-O--0.6323           2.38021  -11.98498   2.36265 
 C-C-0.7903            1.05137  -9.33889   2.10456 
 O-O--0.6136           0.8421   -9.26384   3.28545 
 N-N--0.5650           0.05026  -9.35662   1.19822 
 C-CT--0.3231         -1.32793  -9.44603   1.63501 
 N-N--0.7191           3.99741   1.07028  -0.42545 
 C-C-0.8539            3.58702   2.26716  -0.93409 
 C-CT--0.3903          4.32815   2.72766  -2.17214 
 O-O--0.6290           2.69713   2.90543  -0.4474 
 H-H1-0.1459          -0.40326   1.00615   0. 
 H-H1-0.1459          -0.36496  -0.516     0.87594 
 H-H1-0.1459          -0.34566  -0.52209  -0.88335 
 H-H-0.3572            1.90424   0.07091  -0.87936 
 H-HC-0.0997           3.93214   1.22176   2.98008 
 H-HC-0.0997           5.28092   1.59593   1.9075 
 H-HC-0.0997           3.79271   2.54059   1.8484 
 H-HC-0.0347           5.37458  -0.64325   0.89141 
 H-HC-0.0347           3.98464  -1.40332   0.17498 
 H-HC-0.0243           4.96157  -2.32476   2.35464 
 H-HC-0.0243           4.25012  -0.97572   3.18226 
 H-HC-0.0171           1.98572  -1.76405   2.56272 
 H-HC-0.0171           2.89564  -2.94811   3.43725 
 H-HA-0.1313           2.1355   -3.00918   0.48186 
 H-HA-0.1359           2.57948  -5.27639   0.48583 
 H-HC-0.0092           3.37538  -4.99698   3.42976 
 H-HC-0.0092           4.50582  -5.66019   2.29002 
 H-HC-0.0318           3.27406  -7.38502   3.5501 
 H-HC-0.0318           1.76001  -6.80239   2.94484 
 H-HC-0.0435           3.97869  -7.82779   1.12233 
 H-HC-0.0435           2.3674   -7.37746   0.63866 
 H-HC-0.1066           3.73411  -9.96301  -0.05883 
 H-HC-0.1066           2.17499  -9.37557  -0.58816 
 H-HC-0.1066           2.3157   -10.96566   0.17184 
 H-H-0.3529            3.76362  -9.37181   3.22182 
 H-HC-0.1047           3.90254  -12.73199   4.24219 
 H-HC-0.1047           3.29134  -11.29962   5.06124 
 H-HC-0.1047           4.85139  -11.23673   4.24731 
 H-H-0.3615            0.25436  -9.65658   0.27428 
 H-H1-0.1469          -1.97185  -9.32422   0.77393 
 H-H1-0.1469          -1.53718  -8.65988   2.34551 
 H-H1-0.1469          -1.53972  -10.40004   2.107 
 H-H-0.3570            4.82812   0.68479  -0.81644 
 H-HC-0.1060           3.71017   3.4346   -2.70629 
 H-HC-0.1060           4.58817   1.90253  -2.82568 
 H-HC-0.1060           5.24477   3.2262   -1.87372 
 
 The following ModRedundant input section has been read:
 D    *   11   12    * F                                                       
 Stoichiometry    C20H36N4O4
 Framework group  C1[X(C20H36N4O4)]
 Deg. of freedom   186
 Full point group                 C1      NOp   1
 Largest Abelian subgroup         C1      NOp   1
 Largest concise Abelian subgroup C1      NOp   1
                         Standard orientation:                         
 ---------------------------------------------------------------------
 Center     Atomic      Atomic             Coordinates (Angstroms)
 Number     Number       Type             X           Y           Z
 ---------------------------------------------------------------------
      1          6    20001001       -4.310992    2.983418   -0.450301
      2          7    20001014       -4.439937    1.622685    0.028266
      3          6    20001002       -4.769612    0.632417   -0.833588
      4          8    20001024       -4.745676    0.778658   -2.024297
      5          6    90000001       -5.048968   -0.748589   -0.213776
      6          6    90000002       -5.837807   -1.607143   -1.207989
      7          6    90000002       -3.714869   -1.431396    0.193111
      8          6    90000002       -2.665580   -1.727631   -0.893569
      9          6    90000002       -1.725838   -0.579494   -1.312263
     10          6    20001004       -0.937442    0.017187   -0.170037
     11          6    20001004        0.311617   -0.251190    0.174322
     12          6    90000002        1.258566   -1.222079   -0.489316
     13          6    90000002        2.708949   -0.718107   -0.598720
     14          6    90000002        3.345006   -0.442157    0.770293
     15          6    90000002        4.856855   -0.100191    0.815221
     16          6    90000002        5.224427    0.189847    2.279536
     17          7    20001014        5.608163   -1.256590    0.346386
     18          6    20001002        6.956241   -1.195889    0.141302
     19          6    20001001        7.525866   -2.321933   -0.690778
     20          8    20001024        7.643622   -0.318500    0.584965
     21          6    20001002        5.124026    1.075303   -0.152021
     22          8    20001024        5.285435    0.870201   -1.324971
     23          7    20001014        5.064545    2.325146    0.356246
     24          6    20001001        5.354785    3.468996   -0.483735
     25          7    20001014       -5.792680   -0.604195    1.046174
     26          6    20001002       -7.021095   -0.019043    1.137093
     27          6    20001001       -7.764652   -0.282609    2.430065
     28          8    20001024       -7.477626    0.664631    0.265136
     29          1    20001035       -5.260154    3.384022   -0.787284
     30          1    20001035       -3.612899    3.016021   -1.273906
     31          1    20001035       -3.930830    3.598662    0.355493
     32          1    20001029       -4.711004    1.496055    0.975247
     33          1    20001034       -5.311542   -1.702802   -2.145447
     34          1    20001034       -5.994378   -2.595711   -0.786734
     35          1    20001034       -6.797571   -1.156813   -1.415315
     36          1    20001034       -3.996527   -2.384945    0.634284
     37          1    20001034       -3.259814   -0.850626    0.989296
     38          1    20001034       -2.045521   -2.532915   -0.510603
     39          1    20001034       -3.151389   -2.118030   -1.781798
     40          1    20001034       -2.291414    0.204234   -1.799354
     41          1    20001034       -1.053026   -0.974972   -2.065094
     42          1    20001033       -1.466759    0.747399    0.420493
     43          1    20001033        0.714142    0.279982    1.022609
     44          1    20001034        0.908832   -1.467368   -1.484798
     45          1    20001034        1.248776   -2.154549    0.073710
     46          1    20001034        3.277893   -1.464766   -1.145690
     47          1    20001034        2.731450    0.177152   -1.206038
     48          1    20001034        3.204068   -1.307161    1.414836
     49          1    20001034        2.818069    0.381747    1.237059
     50          1    20001034        5.100027   -0.719947    2.855193
     51          1    20001034        4.566786    0.938485    2.708990
     52          1    20001034        6.250210    0.512398    2.376848
     53          1    20001029        5.119360   -1.855478   -0.279007
     54          1    20001034        8.583623   -2.406998   -0.493355
     55          1    20001034        7.385676   -2.081577   -1.740397
     56          1    20001034        7.036143   -3.268053   -0.487284
     57          1    20001029        5.170855    2.442497    1.336163
     58          1    20001035        5.135172    4.370769    0.072591
     59          1    20001035        4.733851    3.439880   -1.367035
     60          1    20001035        6.394094    3.486201   -0.795659
     61          1    20001029       -5.560831   -1.259504    1.759170
     62          1    20001034       -8.499577    0.495736    2.575105
     63          1    20001034       -7.099643   -0.321500    3.285519
     64          1    20001034       -8.279714   -1.235060    2.356922
 ---------------------------------------------------------------------
 Rotational constants (GHZ):      0.4022022      0.0453777      0.0439493
 Standard basis: 6-31G(d) (6D, 7F)
 There are   492 symmetry adapted basis functions of A   symmetry.
 Integral buffers will be    131072 words long.
 Raffenetti 1 integral format.
 Two-electron integral symmetry is turned on.
   492 basis functions,   928 primitive gaussians,   492 cartesian basis functions
   108 alpha electrons      108 beta electrons
       nuclear repulsion energy      2653.3990864879 Hartrees.
 NAtoms=   64 NActive=   64 NUniq=   64 SFac= 7.50D-01 NAtFMM=   80 NAOKFM=F Big=T
 One-electron integrals computed using PRISM.
 NBasis=   492 RedAO= T  NBF=   492
 NBsUse=   492 1.00D-06 NBFU=   492
 Harris functional with IExCor=  205 diagonalized for initial guess.
 ExpMin= 1.61D-01 ExpMax= 5.48D+03 ExpMxC= 8.25D+02 IAcc=1 IRadAn=         1 AccDes= 0.00D+00
 HarFok:  IExCor=  205 AccDes= 0.00D+00 IRadAn=         1 IDoV= 1
 ScaDFX=  1.000000  1.000000  1.000000  1.000000
 FoFCou: FMM=F IPFlag=           0 FMFlag=      100000 FMFlg1=           1
         NFxFlg=           0 DoJE=T BraDBF=F KetDBF=T FulRan=T
         Omega=  0.000000  0.000000  1.000000  0.000000  0.000000 ICntrl=     500 IOpCl=  0
         NMat0=    1 NMatS0=    1 NMatT0=    0 NMatD0=    1 NMtDS0=    0 NMtDT0=    0
         I1Cent=           4 NGrid=           0.
 Petite list used in FoFCou.
 Initial guess orbital symmetries:
       Occupied  (A) (A) (A) (A) (A) (A) (A) (A) (A) (A) (A) (A)
                 (A) (A) (A) (A) (A) (A) (A) (A) (A) (A) (A) (A)
                 (A) (A) (A) (A) (A) (A) (A) (A) (A) (A) (A) (A)
                 (A) (A) (A) (A) (A) (A) (A) (A) (A) (A) (A) (A)
                 (A) (A) (A) (A) (A) (A) (A) (A) (A) (A) (A) (A)
                 (A) (A) (A) (A) (A) (A) (A) (A) (A) (A) (A) (A)
                 (A) (A) (A) (A) (A) (A) (A) (A) (A) (A) (A) (A)
                 (A) (A) (A) (A) (A) (A) (A) (A) (A) (A) (A) (A)
                 (A) (A) (A) (A) (A) (A) (A) (A) (A) (A) (A) (A)
       Virtual   (A) (A) (A) (A) (A) (A) (A) (A) (A) (A) (A) (A)
                 (A) (A) (A) (A) (A) (A) (A) (A) (A) (A) (A) (A)
                 (A) (A) (A) (A) (A) (A) (A) (A) (A) (A) (A) (A)
                 (A) (A) (A) (A) (A) (A) (A) (A) (A) (A) (A) (A)
                 (A) (A) (A) (A) (A) (A) (A) (A) (A) (A) (A) (A)
                 (A) (A) (A) (A) (A) (A) (A) (A) (A) (A) (A) (A)
                 (A) (A) (A) (A) (A) (A) (A) (A) (A) (A) (A) (A)
                 (A) (A) (A) (A) (A) (A) (A) (A) (A) (A) (A) (A)
                 (A) (A) (A) (A) (A) (A) (A) (A) (A) (A) (A) (A)
                 (A) (A) (A) (A) (A) (A) (A) (A) (A) (A) (A) (A)
                 (A) (A) (A) (A) (A) (A) (A) (A) (A) (A) (A) (A)
                 (A) (A) (A) (A) (A) (A) (A) (A) (A) (A) (A) (A)
                 (A) (A) (A) (A) (A) (A) (A) (A) (A) (A) (A) (A)
                 (A) (A) (A) (A) (A) (A) (A) (A) (A) (A) (A) (A)
                 (A) (A) (A) (A) (A) (A) (A) (A) (A) (A) (A) (A)
                 (A) (A) (A) (A) (A) (A) (A) (A) (A) (A) (A) (A)
                 (A) (A) (A) (A) (A) (A) (A) (A) (A) (A) (A) (A)
                 (A) (A) (A) (A) (A) (A) (A) (A) (A) (A) (A) (A)
                 (A) (A) (A) (A) (A) (A) (A) (A) (A) (A) (A) (A)
                 (A) (A) (A) (A) (A) (A) (A) (A) (A) (A) (A) (A)
                 (A) (A) (A) (A) (A) (A) (A) (A) (A) (A) (A) (A)
                 (A) (A) (A) (A) (A) (A) (A) (A) (A) (A) (A) (A)
                 (A) (A) (A) (A) (A) (A) (A) (A) (A) (A) (A) (A)
                 (A) (A) (A) (A) (A) (A) (A) (A) (A) (A) (A) (A)
                 (A) (A) (A) (A) (A) (A) (A) (A) (A) (A) (A) (A)
                 (A) (A) (A) (A) (A) (A) (A) (A) (A) (A) (A) (A)
                 (A) (A) (A) (A) (A) (A) (A) (A) (A) (A) (A) (A)
                 (A) (A) (A) (A) (A) (A) (A) (A) (A) (A) (A) (A)
                 (A) (A) (A) (A) (A) (A) (A) (A) (A) (A) (A) (A)
                 (A) (A) (A) (A) (A) (A) (A) (A) (A) (A) (A) (A)
                 (A) (A) (A) (A) (A) (A) (A) (A) (A) (A) (A) (A)
                 (A) (A) (A) (A) (A) (A) (A) (A) (A) (A) (A) (A)
 The electronic state of the initial guess is 1-A.
 Requested convergence on RMS density matrix=1.00D-08 within 128 cycles.
 Requested convergence on MAX density matrix=1.00D-06.
 Requested convergence on             energy=1.00D-06.
 No special actions if energy rises.
 Integral accuracy reduced to 1.0D-05 until final iterations.
 Initial convergence to 1.0D-05 achieved.  Increase integral accuracy.
 SCF Done:  E(RHF) =  -1295.62033839     A.U. after   14 cycles
             Convg  =    0.5887D-08             -V/T =  2.0012

 **********************************************************************

            Population analysis using the SCF density.

 **********************************************************************

 Orbital symmetries:
       Occupied  (A) (A) (A) (A) (A) (A) (A) (A) (A) (A) (A) (A)
                 (A) (A) (A) (A) (A) (A) (A) (A) (A) (A) (A) (A)
                 (A) (A) (A) (A) (A) (A) (A) (A) (A) (A) (A) (A)
                 (A) (A) (A) (A) (A) (A) (A) (A) (A) (A) (A) (A)
                 (A) (A) (A) (A) (A) (A) (A) (A) (A) (A) (A) (A)
                 (A) (A) (A) (A) (A) (A) (A) (A) (A) (A) (A) (A)
                 (A) (A) (A) (A) (A) (A) (A) (A) (A) (A) (A) (A)
                 (A) (A) (A) (A) (A) (A) (A) (A) (A) (A) (A) (A)
                 (A) (A) (A) (A) (A) (A) (A) (A) (A) (A) (A) (A)
       Virtual   (A) (A) (A) (A) (A) (A) (A) (A) (A) (A) (A) (A)
                 (A) (A) (A) (A) (A) (A) (A) (A) (A) (A) (A) (A)
                 (A) (A) (A) (A) (A) (A) (A) (A) (A) (A) (A) (A)
                 (A) (A) (A) (A) (A) (A) (A) (A) (A) (A) (A) (A)
                 (A) (A) (A) (A) (A) (A) (A) (A) (A) (A) (A) (A)
                 (A) (A) (A) (A) (A) (A) (A) (A) (A) (A) (A) (A)
                 (A) (A) (A) (A) (A) (A) (A) (A) (A) (A) (A) (A)
                 (A) (A) (A) (A) (A) (A) (A) (A) (A) (A) (A) (A)
                 (A) (A) (A) (A) (A) (A) (A) (A) (A) (A) (A) (A)
                 (A) (A) (A) (A) (A) (A) (A) (A) (A) (A) (A) (A)
                 (A) (A) (A) (A) (A) (A) (A) (A) (A) (A) (A) (A)
                 (A) (A) (A) (A) (A) (A) (A) (A) (A) (A) (A) (A)
                 (A) (A) (A) (A) (A) (A) (A) (A) (A) (A) (A) (A)
                 (A) (A) (A) (A) (A) (A) (A) (A) (A) (A) (A) (A)
                 (A) (A) (A) (A) (A) (A) (A) (A) (A) (A) (A) (A)
                 (A) (A) (A) (A) (A) (A) (A) (A) (A) (A) (A) (A)
                 (A) (A) (A) (A) (A) (A) (A) (A) (A) (A) (A) (A)
                 (A) (A) (A) (A) (A) (A) (A) (A) (A) (A) (A) (A)
                 (A) (A) (A) (A) (A) (A) (A) (A) (A) (A) (A) (A)
                 (A) (A) (A) (A) (A) (A) (A) (A) (A) (A) (A) (A)
                 (A) (A) (A) (A) (A) (A) (A) (A) (A) (A) (A) (A)
                 (A) (A) (A) (A) (A) (A) (A) (A) (A) (A) (A) (A)
                 (A) (A) (A) (A) (A) (A) (A) (A) (A) (A) (A) (A)
                 (A) (A) (A) (A) (A) (A) (A) (A) (A) (A) (A) (A)
                 (A) (A) (A) (A) (A) (A) (A) (A) (A) (A) (A) (A)
                 (A) (A) (A) (A) (A) (A) (A) (A) (A) (A) (A) (A)
                 (A) (A) (A) (A) (A) (A) (A) (A) (A) (A) (A) (A)
                 (A) (A) (A) (A) (A) (A) (A) (A) (A) (A) (A) (A)
                 (A) (A) (A) (A) (A) (A) (A) (A) (A) (A) (A) (A)
                 (A) (A) (A) (A) (A) (A) (A) (A) (A) (A) (A) (A)
                 (A) (A) (A) (A) (A) (A) (A) (A) (A) (A) (A) (A)
                 (A) (A) (A) (A) (A) (A) (A) (A) (A) (A) (A) (A)
 The electronic state is 1-A.
 Alpha  occ. eigenvalues --  -20.53667 -20.52177 -20.51854 -20.51766 -15.59628
 Alpha  occ. eigenvalues --  -15.58097 -15.57669 -15.57535 -11.35987 -11.34383
 Alpha  occ. eigenvalues --  -11.33868 -11.33855 -11.29044 -11.28748 -11.25179
 Alpha  occ. eigenvalues --  -11.24881 -11.24380 -11.24021 -11.23615 -11.22714
 Alpha  occ. eigenvalues --  -11.22617 -11.22583 -11.22465 -11.22233 -11.21975
 Alpha  occ. eigenvalues --  -11.21942 -11.21579 -11.20878  -1.40603  -1.39518
 Alpha  occ. eigenvalues --   -1.38712  -1.38244  -1.25450  -1.23700  -1.22804
 Alpha  occ. eigenvalues --   -1.22082  -1.10782  -1.09368  -1.07260  -1.04328
 Alpha  occ. eigenvalues --   -1.01310  -0.99365  -0.98846  -0.95515  -0.95236
 Alpha  occ. eigenvalues --   -0.94689  -0.92266  -0.87235  -0.85842  -0.82849
 Alpha  occ. eigenvalues --   -0.81415  -0.79676  -0.78847  -0.77185  -0.77049
 Alpha  occ. eigenvalues --   -0.72148  -0.71471  -0.71172  -0.69021  -0.68073
 Alpha  occ. eigenvalues --   -0.66210  -0.65862  -0.64792  -0.64089  -0.63947
 Alpha  occ. eigenvalues --   -0.62591  -0.62223  -0.61846  -0.61574  -0.61368
 Alpha  occ. eigenvalues --   -0.60945  -0.59922  -0.59537  -0.58826  -0.58509
 Alpha  occ. eigenvalues --   -0.58321  -0.57892  -0.56712  -0.56465  -0.56231
 Alpha  occ. eigenvalues --   -0.55514  -0.55143  -0.54908  -0.54551  -0.54146
 Alpha  occ. eigenvalues --   -0.53332  -0.52827  -0.52684  -0.52073  -0.51567
 Alpha  occ. eigenvalues --   -0.51046  -0.50270  -0.49962  -0.49547  -0.48662
 Alpha  occ. eigenvalues --   -0.48412  -0.46963  -0.46291  -0.44475  -0.42879
 Alpha  occ. eigenvalues --   -0.41958  -0.41657  -0.41198  -0.39300  -0.39002
 Alpha  occ. eigenvalues --   -0.38454  -0.38318  -0.34466
 Alpha virt. eigenvalues --    0.17555   0.18779   0.19509   0.19964   0.20190
 Alpha virt. eigenvalues --    0.21388   0.21849   0.22778   0.23398   0.24062
 Alpha virt. eigenvalues --    0.25182   0.25769   0.26369   0.26526   0.27753
 Alpha virt. eigenvalues --    0.28032   0.28182   0.28728   0.29250   0.29368
 Alpha virt. eigenvalues --    0.29512   0.30535   0.31110   0.31216   0.31331
 Alpha virt. eigenvalues --    0.32053   0.32226   0.32478   0.33216   0.33316
 Alpha virt. eigenvalues --    0.33858   0.34186   0.34588   0.35022   0.35313
 Alpha virt. eigenvalues --    0.35576   0.35856   0.36683   0.37342   0.37601
 Alpha virt. eigenvalues --    0.38504   0.38983   0.39268   0.39587   0.40382
 Alpha virt. eigenvalues --    0.40648   0.41877   0.42236   0.42513   0.43893
 Alpha virt. eigenvalues --    0.44805   0.44942   0.45515   0.46039   0.46602
 Alpha virt. eigenvalues --    0.48041   0.48849   0.49229   0.52154   0.52836
 Alpha virt. eigenvalues --    0.54453   0.55114   0.57582   0.58967   0.59540
 Alpha virt. eigenvalues --    0.62064   0.63327   0.64371   0.69132   0.70118
 Alpha virt. eigenvalues --    0.70908   0.71243   0.72011   0.72937   0.73035
 Alpha virt. eigenvalues --    0.74107   0.74195   0.75003   0.75726   0.76317
 Alpha virt. eigenvalues --    0.76739   0.77028   0.77773   0.78685   0.79162
 Alpha virt. eigenvalues --    0.79880   0.80478   0.80750   0.81400   0.82423
 Alpha virt. eigenvalues --    0.83167   0.83738   0.84449   0.85616   0.86570
 Alpha virt. eigenvalues --    0.86691   0.87309   0.88970   0.89872   0.90786
 Alpha virt. eigenvalues --    0.91663   0.92149   0.92648   0.93659   0.93952
 Alpha virt. eigenvalues --    0.95184   0.95574   0.96714   0.96915   0.97761
 Alpha virt. eigenvalues --    0.98131   0.99047   0.99305   0.99837   1.00663
 Alpha virt. eigenvalues --    1.01351   1.02240   1.02762   1.02944   1.03148
 Alpha virt. eigenvalues --    1.03838   1.04363   1.05645   1.06079   1.06637
 Alpha virt. eigenvalues --    1.07386   1.08055   1.08324   1.10122   1.10996
 Alpha virt. eigenvalues --    1.11978   1.12158   1.12773   1.13718   1.14125
 Alpha virt. eigenvalues --    1.14290   1.14591   1.15080   1.15322   1.15904
 Alpha virt. eigenvalues --    1.16318   1.16953   1.16987   1.17640   1.18077
 Alpha virt. eigenvalues --    1.18248   1.18549   1.18798   1.19193   1.19654
 Alpha virt. eigenvalues --    1.20048   1.20403   1.20560   1.20807   1.21332
 Alpha virt. eigenvalues --    1.22067   1.22177   1.22400   1.22635   1.22925
 Alpha virt. eigenvalues --    1.23309   1.23430   1.24492   1.24863   1.25434
 Alpha virt. eigenvalues --    1.26141   1.26904   1.27704   1.28802   1.29447
 Alpha virt. eigenvalues --    1.30280   1.30495   1.30583   1.32222   1.32753
 Alpha virt. eigenvalues --    1.33660   1.34666   1.35046   1.35684   1.37758
 Alpha virt. eigenvalues --    1.38281   1.38826   1.40276   1.41261   1.43941
 Alpha virt. eigenvalues --    1.44615   1.45256   1.46450   1.47364   1.48624
 Alpha virt. eigenvalues --    1.50661   1.51545   1.53386   1.54128   1.54941
 Alpha virt. eigenvalues --    1.56822   1.58308   1.60391   1.60775   1.61357
 Alpha virt. eigenvalues --    1.61933   1.63876   1.65868   1.66880   1.68161
 Alpha virt. eigenvalues --    1.69690   1.69951   1.70922   1.72545   1.72894
 Alpha virt. eigenvalues --    1.73735   1.74146   1.76748   1.78666   1.79292
 Alpha virt. eigenvalues --    1.80162   1.81662   1.82978   1.87213   1.88861
 Alpha virt. eigenvalues --    1.89219   1.89989   1.92155   1.94037   1.94971
 Alpha virt. eigenvalues --    1.95949   1.96792   1.98436   1.99875   2.01719
 Alpha virt. eigenvalues --    2.04323   2.05227   2.06355   2.06886   2.08633
 Alpha virt. eigenvalues --    2.09350   2.10952   2.11613   2.11997   2.12584
 Alpha virt. eigenvalues --    2.13036   2.13390   2.14265   2.15165   2.16096
 Alpha virt. eigenvalues --    2.16617   2.16890   2.18169   2.18698   2.19316
 Alpha virt. eigenvalues --    2.19473   2.20470   2.21938   2.22949   2.23506
 Alpha virt. eigenvalues --    2.23815   2.24934   2.26258   2.26589   2.27525
 Alpha virt. eigenvalues --    2.27760   2.29448   2.29829   2.30687   2.31787
 Alpha virt. eigenvalues --    2.32739   2.33697   2.34077   2.34832   2.35913
 Alpha virt. eigenvalues --    2.36500   2.37244   2.37470   2.38528   2.39397
 Alpha virt. eigenvalues --    2.40572   2.40917   2.41973   2.42509   2.44437
 Alpha virt. eigenvalues --    2.45391   2.46284   2.47413   2.49647   2.50049
 Alpha virt. eigenvalues --    2.51521   2.52196   2.54226   2.54804   2.55404
 Alpha virt. eigenvalues --    2.56741   2.56939   2.57626   2.59424   2.60512
 Alpha virt. eigenvalues --    2.62419   2.63127   2.63988   2.64335   2.64990
 Alpha virt. eigenvalues --    2.65643   2.68022   2.69570   2.70415   2.71148
 Alpha virt. eigenvalues --    2.71684   2.72852   2.73754   2.74765   2.76134
 Alpha virt. eigenvalues --    2.76887   2.77899   2.78651   2.79523   2.81033
 Alpha virt. eigenvalues --    2.81458   2.83464   2.83759   2.84598   2.86158
 Alpha virt. eigenvalues --    2.87788   2.88426   2.90869   2.92049   2.95638
 Alpha virt. eigenvalues --    2.96667   2.97713   2.98329   2.98777   3.00871
 Alpha virt. eigenvalues --    3.03161   3.04529   3.05130   3.06214   3.06501
 Alpha virt. eigenvalues --    3.10758   3.11318   3.12863   3.13922   3.15505
 Alpha virt. eigenvalues --    3.16845   3.18326   3.25666   3.29607   3.30921
 Alpha virt. eigenvalues --    3.34395   3.34618   3.38745   3.40458   3.42448
 Alpha virt. eigenvalues --    3.42733   3.42998   3.53271   3.55554   3.57435
 Alpha virt. eigenvalues --    3.60138   4.38293   4.40925   4.44714   4.46836
 Alpha virt. eigenvalues --    4.49108   4.51777   4.55002   4.57915   4.61338
 Alpha virt. eigenvalues --    4.63458   4.66109   4.67526   4.68437   4.69958
 Alpha virt. eigenvalues --    4.70732   4.76454   4.78768   4.81834   4.83484
 Alpha virt. eigenvalues --    4.87477   4.88548   4.93454   4.94874   4.98820
 Alpha virt. eigenvalues --    5.01829   5.11760   5.21911   5.23615
          Condensed to atoms (all electrons):
 Mulliken atomic charges:
              1
     1  C   -0.279757
     2  N   -0.783328
     3  C    0.822124
     4  O   -0.628342
     5  C    0.102404
     6  C   -0.472720
     7  C   -0.334218
     8  C   -0.310843
     9  C   -0.372367
    10  C   -0.185997
    11  C   -0.170750
    12  C   -0.349256
    13  C   -0.320926
    14  C   -0.332186
    15  C    0.093451
    16  C   -0.509469
    17  N   -0.788224
    18  C    0.767291
    19  C   -0.595702
    20  O   -0.613882
    21  C    0.820387
    22  O   -0.638674
    23  N   -0.806658
    24  C   -0.275592
    25  N   -0.843059
    26  C    0.744566
    27  C   -0.588669
    28  O   -0.591687
    29  H    0.186856
    30  H    0.198762
    31  H    0.162396
    32  H    0.391196
    33  H    0.198711
    34  H    0.143978
    35  H    0.212550
    36  H    0.161033
    37  H    0.182004
    38  H    0.163964
    39  H    0.179242
    40  H    0.212104
    41  H    0.172882
    42  H    0.180493
    43  H    0.170872
    44  H    0.180004
    45  H    0.162542
    46  H    0.155277
    47  H    0.199594
    48  H    0.176149
    49  H    0.180416
    50  H    0.184034
    51  H    0.147666
    52  H    0.227027
    53  H    0.389940
    54  H    0.211430
    55  H    0.209728
    56  H    0.176555
    57  H    0.395422
    58  H    0.164818
    59  H    0.199129
    60  H    0.185674
    61  H    0.382503
    62  H    0.218690
    63  H    0.177121
    64  H    0.201322
 Sum of Mulliken atomic charges =   0.00000
 Mulliken charges with hydrogens summed into heavy atoms:
              1
     1  C    0.268257
     2  N   -0.392132
     3  C    0.822124
     4  O   -0.628342
     5  C    0.102404
     6  C    0.082520
     7  C    0.008819
     8  C    0.032362
     9  C    0.012618
    10  C   -0.005504
    11  C    0.000121
    12  C   -0.006710
    13  C    0.033946
    14  C    0.024379
    15  C    0.093451
    16  C    0.049258
    17  N   -0.398284
    18  C    0.767291
    19  C    0.002012
    20  O   -0.613882
    21  C    0.820387
    22  O   -0.638674
    23  N   -0.411236
    24  C    0.274030
    25  N   -0.460556
    26  C    0.744566
    27  C    0.008464
    28  O   -0.591687
 Sum of Mulliken charges with hydrogens summed into heavy atoms =   0.00000
 Electronic spatial extent (au):  <R**2>=          23768.9903
 Charge=              0.0000 electrons
 Dipole moment (field-independent basis, Debye):
    X=             -1.7019    Y=             -2.7612    Z=              6.7757  Tot=              7.5121
 Quadrupole moment (field-independent basis, Debye-Ang):
   XX=           -217.2852   YY=           -151.7617   ZZ=           -172.9230
   XY=              9.8768   XZ=            -27.3881   YZ=              8.0528
 Traceless Quadrupole moment (field-independent basis, Debye-Ang):
   XX=            -36.6286   YY=             28.8949   ZZ=              7.7336
   XY=              9.8768   XZ=            -27.3881   YZ=              8.0528
 Octapole moment (field-independent basis, Debye-Ang**2):
  XXX=           -176.7655  YYY=             48.5270  ZZZ=             33.8592  XYY=             53.3308
  XXY=           -151.2485  XXZ=            193.0196  XZZ=            -18.0817  YZZ=             -3.0047
  YYZ=              2.1243  XYZ=             26.7993
 Hexadecapole moment (field-independent basis, Debye-Ang**3):
 XXXX=         -31250.7611 YYYY=          -2261.5356 ZZZZ=          -1429.4986 XXXY=            382.1174
 XXXZ=          -1508.8451 YYYX=             29.2599 YYYZ=            -10.6332 ZZZX=           -130.1219
 ZZZY=             21.8283 XXYY=          -4344.5841 XXZZ=          -4689.6657 YYZZ=           -616.7773
 XXYZ=            194.5882 YYXZ=            -31.4547 ZZXY=             47.4545
 N-N= 2.653399086488D+03 E-N=-8.338679122345D+03  KE= 1.294017657938D+03
 1\1\GINC-MOSURA\SP\RHF\6-31G(d)\C20H36N4O4\MARIE\05-Dec-2019\0\\#SP HF
 /6-31G* Geom=(ModRedundant)\\paramfit run\\0,1\C,0,0.,0.,0.\N,0,1.4481
 87,0.,0.\C,0,2.1232,0.47592,1.072365\O,0,1.590179,0.696732,2.124447\C,
 0,3.650505,0.594143,0.921539\C,0,4.198902,1.549248,1.986845\C,0,4.3077
 51,-0.809116,1.023981\C,0,4.133566,-1.622781,2.319066\C,0,2.832729,-2.
 433298,2.484965\C,0,2.579342,-3.423586,1.372579\C,0,2.834093,-4.721989
 ,1.375535\C,0,3.442731,-5.535663,2.492337\C,0,2.803899,-6.922639,2.686
 653\C,0,2.940382,-7.816615,1.446858\C,0,2.499301,-9.298512,1.565495\C,
 0,2.677946,-9.948621,0.183867\N,0,3.36404,-9.964089,2.530256\C,0,3.119
 201,-11.241089,2.945445\C,0,3.851557,-11.654585,4.201423\O,0,2.380206,
 -11.984981,2.362648\C,0,1.051371,-9.338891,2.104562\O,0,0.842104,-9.26
 3844,3.285454\N,0,0.050263,-9.356617,1.198224\C,0,-1.327934,-9.446031,
 1.635009\N,0,3.997412,1.070275,-0.425452\C,0,3.587019,2.267163,-0.9340
 86\C,0,4.328148,2.727659,-2.172145\O,0,2.697134,2.905425,-0.447397\H,0
 ,-0.403259,1.006147,0.\H,0,-0.36496,-0.516002,0.875939\H,0,-0.345658,-
 0.522086,-0.883346\H,0,1.904244,0.070913,-0.879357\H,0,3.932135,1.2217
 6,2.980082\H,0,5.28092,1.595925,1.9075\H,0,3.792711,2.540594,1.848395\
 H,0,5.374584,-0.64325,0.891407\H,0,3.984642,-1.403324,0.174983\H,0,4.9
 61565,-2.324757,2.354635\H,0,4.250121,-0.975721,3.182259\H,0,1.985724,
 -1.764045,2.562723\H,0,2.895638,-2.94811,3.437249\H,0,2.135502,-3.0091
 81,0.481856\H,0,2.579482,-5.276386,0.485828\H,0,3.375381,-4.996982,3.4
 29755\H,0,4.505819,-5.660187,2.29002\H,0,3.274059,-7.385015,3.550095\H
 ,0,1.760007,-6.802394,2.944839\H,0,3.978694,-7.82779,1.122334\H,0,2.36
 7398,-7.377461,0.63866\H,0,3.734106,-9.963005,-0.058827\H,0,2.17499,-9
 .375569,-0.588161\H,0,2.315697,-10.965661,0.171835\H,0,3.763617,-9.371
 813,3.221818\H,0,3.902544,-12.731989,4.242186\H,0,3.291342,-11.299623,
 5.06124\H,0,4.851393,-11.236728,4.247313\H,0,0.254355,-9.656581,0.2742
 77\H,0,-1.971852,-9.324216,0.773932\H,0,-1.537183,-8.659884,2.345511\H
 ,0,-1.539716,-10.400036,2.107001\H,0,4.82812,0.684785,-0.816437\H,0,3.
 710173,3.434604,-2.706288\H,0,4.588171,1.902533,-2.825678\H,0,5.244771
 ,3.226201,-1.873716\\Version=EM64L-G09RevA.02\State=1-A\HF=-1295.62033
 84\RMSD=5.887e-09\Dipole=1.9612868,0.0923474,-2.2089953\Quadrupole=18.
 087326,-34.2930672,16.2057412,10.949637,6.1534002,-9.0455884\PG=C01 [X
 (C20H36N4O4)]\\@


 FROM WHENCE IT HAPPENS, THAT THEY WHICH TRUST TO BOOKS, DO AS THEY THAT CAST UP MANY LITTLE SUMMS INTO GREATER,
 WITHOUT CONSIDERING WETHER THOSE LITTLE SUMMES WERE RIGHTLY CAST UP OR NOT...
 AND AT LAST FINDING THE ERROUR VISIBLE, AND NOT MISTRUSTING THEIR FIRST GROUNDS,
 KNOW NOT WHICH WAY TO CLEERE THEMSELVES...
 BUT SPEND TIME IN FLUTTERING OVER THEIR BOOKES....
 AS BIRDS THAT ENTERING BY THE CHIMNEY, AND FINDING THEMSELVES INCLOSED IN A CHAMBER,
 FLUTTER AT THE FALSE LIGHT OF A GLASSE WINDOW,
 FOR WANT OF WIT TO CONSIDER WHICH WAY THEY CAME IN....
           LEVIATHAN
 Job cpu time:  0 days  0 hours  5 minutes 16.5 seconds.
 File lengths (MBytes):  RWF=    132 Int=      0 D2E=      0 Chk=     10 Scr=      1
 Normal termination of Gaussian 09 at Thu Dec  5 18:57:52 2019.
