 Entering Gaussian System, Link 0=g09
 Input=CHI6_-160.gau
 Output=CHI6_-160.log
 Initial command:
 /home/marie/Utilities//g09/l1.exe /tmp/g09/Gau-10303.inp -scrdir=/tmp/g09/
 Entering Link 1 = /home/marie/Utilities//g09/l1.exe PID=     10305.
  
 Copyright (c) 1988,1990,1992,1993,1995,1998,2003,2009, Gaussian, Inc.
                  All Rights Reserved.
  
 This is part of the Gaussian(R) 09 program.  It is based on
 the Gaussian(R) 03 system (copyright 2003, Gaussian, Inc.),
 the Gaussian(R) 98 system (copyright 1998, Gaussian, Inc.),
 the Gaussian(R) 94 system (copyright 1995, Gaussian, Inc.),
 the Gaussian 92(TM) system (copyright 1992, Gaussian, Inc.),
 the Gaussian 90(TM) system (copyright 1990, Gaussian, Inc.),
 the Gaussian 88(TM) system (copyright 1988, Gaussian, Inc.),
 the Gaussian 86(TM) system (copyright 1986, Carnegie Mellon
 University), and the Gaussian 82(TM) system (copyright 1983,
 Carnegie Mellon University). Gaussian is a federally registered
 trademark of Gaussian, Inc.
  
 This software contains proprietary and confidential information,
 including trade secrets, belonging to Gaussian, Inc.
  
 This software is provided under written license and may be
 used, copied, transmitted, or stored only in accord with that
 written license.
  
 The following legend is applicable only to US Government
 contracts under FAR:
  
                    RESTRICTED RIGHTS LEGEND
  
 Use, reproduction and disclosure by the US Government is
 subject to restrictions as set forth in subparagraphs (a)
 and (c) of the Commercial Computer Software - Restricted
 Rights clause in FAR 52.227-19.
  
 Gaussian, Inc.
 340 Quinnipiac St., Bldg. 40, Wallingford CT 06492
  
  
 ---------------------------------------------------------------
 Warning -- This program may not be used in any manner that
 competes with the business of Gaussian, Inc. or will provide
 assistance to any competitor of Gaussian, Inc.  The licensee
 of this program is prohibited from giving any competitor of
 Gaussian, Inc. access to this program.  By using this program,
 the user acknowledges that Gaussian, Inc. is engaged in the
 business of creating and licensing software in the field of
 computational chemistry and represents and warrants to the
 licensee that it is not a competitor of Gaussian, Inc. and that
 it will not use this program in any manner prohibited above.
 ---------------------------------------------------------------
  

 Cite this work as:
 Gaussian 09, Revision A.02,
 M. J. Frisch, G. W. Trucks, H. B. Schlegel, G. E. Scuseria, 
 M. A. Robb, J. R. Cheeseman, G. Scalmani, V. Barone, B. Mennucci, 
 G. A. Petersson, H. Nakatsuji, M. Caricato, X. Li, H. P. Hratchian, 
 A. F. Izmaylov, J. Bloino, G. Zheng, J. L. Sonnenberg, M. Hada, 
 M. Ehara, K. Toyota, R. Fukuda, J. Hasegawa, M. Ishida, T. Nakajima, 
 Y. Honda, O. Kitao, H. Nakai, T. Vreven, J. A. Montgomery, Jr., 
 J. E. Peralta, F. Ogliaro, M. Bearpark, J. J. Heyd, E. Brothers, 
 K. N. Kudin, V. N. Staroverov, R. Kobayashi, J. Normand, 
 K. Raghavachari, A. Rendell, J. C. Burant, S. S. Iyengar, J. Tomasi, 
 M. Cossi, N. Rega, J. M. Millam, M. Klene, J. E. Knox, J. B. Cross, 
 V. Bakken, C. Adamo, J. Jaramillo, R. Gomperts, R. E. Stratmann, 
 O. Yazyev, A. J. Austin, R. Cammi, C. Pomelli, J. W. Ochterski, 
 R. L. Martin, K. Morokuma, V. G. Zakrzewski, G. A. Voth, 
 P. Salvador, J. J. Dannenberg, S. Dapprich, A. D. Daniels, 
 O. Farkas, J. B. Foresman, J. V. Ortiz, J. Cioslowski, 
 and D. J. Fox, Gaussian, Inc., Wallingford CT, 2009.
 
 ******************************************
 Gaussian 09:  EM64L-G09RevA.02 11-Jun-2009
                 5-Dec-2019 
 ******************************************
 %chk=CHI6_-160
 %NoSave
 ---------------------------------
 #SP HF/6-31G* Geom=(ModRedundant)
 ---------------------------------
 1/18=120,38=1/1;
 2/12=2,17=6,18=5,40=1/2;
 3/5=1,6=6,7=1,11=9,16=1,25=1,30=1/1,2,3;
 4//1;
 5/5=2,38=5/2;
 6/7=2,8=2,9=2,10=2,28=1/1;
 99/5=1,9=1/99;
 ------------
 paramfit run
 ------------
 Symbolic Z-matrix:
 Charge =  0 Multiplicity = 1
 C-CT--0.3208          0.        0.        0. 
 N-N--0.5622           1.44819   0.        0. 
 C-C-0.8053            2.1232    0.47592   1.07237 
 O-O--0.6151           1.59018   0.69673   2.12445 
 C-CX-0.0839           3.65051   0.59414   0.92154 
 C-CU--0.3230          4.1989    1.54925   1.98685 
 C-CU--0.0657          4.30775  -0.80912   1.02398 
 C-CU--0.0109          4.13357  -1.62278   2.31907 
 C-CU-0.0816           2.83273  -2.4333    2.48497 
 C-CM--0.2354          2.57934  -3.42359   1.37258 
 C-CM--0.2653          2.83409  -4.72199   1.37554 
 C-CU-0.1214           3.44273  -5.53566   2.49234 
 C-CU--0.0354          4.04879  -6.87694   2.04151 
 C-CU--0.0984          5.19165  -6.70124   1.03259 
 C-CU-0.1300           6.00779  -7.95706   0.63077 
 C-CU--0.3561          7.03751  -7.5238   -0.42536 
 N-N--0.7186           6.70263  -8.45557   1.80985 
 C-C-0.8537            7.38515  -9.63743   1.78896 
 C-CT--0.3868          7.72169  -10.20341   3.14955 
 O-O--0.6323           7.69803  -10.1909   0.77165 
 C-C-0.7903            5.02522  -9.04896   0.15012 
 O-O--0.6136           4.47229  -9.75945   0.94598 
 N-N--0.5650           4.74448  -9.0959   -1.17009 
 C-CT--0.3231          3.87167  -10.12625  -1.69428 
 N-N--0.7191           3.99741   1.07028  -0.42545 
 C-C-0.8539            3.58702   2.26716  -0.93409 
 C-CT--0.3903          4.32815   2.72766  -2.17214 
 O-O--0.6290           2.69713   2.90543  -0.4474 
 H-H1-0.1459          -0.40326   1.00615   0. 
 H-H1-0.1459          -0.36496  -0.516     0.87594 
 H-H1-0.1459          -0.34566  -0.52209  -0.88335 
 H-H-0.3572            1.90424   0.07091  -0.87936 
 H-HC-0.0997           3.93214   1.22176   2.98008 
 H-HC-0.0997           5.28092   1.59593   1.9075 
 H-HC-0.0997           3.79271   2.54059   1.8484 
 H-HC-0.0347           5.37458  -0.64325   0.89141 
 H-HC-0.0347           3.98464  -1.40332   0.17498 
 H-HC-0.0243           4.96157  -2.32476   2.35464 
 H-HC-0.0243           4.25012  -0.97572   3.18226 
 H-HC-0.0171           1.98572  -1.76405   2.56272 
 H-HC-0.0171           2.89564  -2.94811   3.43725 
 H-HA-0.1313           2.1355   -3.00918   0.48186 
 H-HA-0.1359           2.57948  -5.27639   0.48583 
 H-HC-0.0092           2.70227  -5.73801   3.2567 
 H-HC-0.0092           4.2182   -4.93955   2.97181 
 H-HC-0.0318           4.39422  -7.39867   2.92968 
 H-HC-0.0318           3.26994  -7.49624   1.61643 
 H-HC-0.0435           5.90661  -5.97815   1.41925 
 H-HC-0.0435           4.7863   -6.27948   0.12037 
 H-HC-0.1066           7.73926  -6.83817   0.03511 
 H-HC-0.1066           6.56106  -6.99824  -1.24643 
 H-HC-0.1066           7.59272  -8.36611  -0.81008 
 H-H-0.3529            6.27151  -8.24012   2.67958 
 H-HC-0.1047           8.54554  -10.8938   3.05109 
 H-HC-0.1047           6.85704  -10.74392   3.52287 
 H-HC-0.1047           7.97521  -9.42712   3.86332 
 H-H-0.3615            5.3813   -8.67418  -1.80407 
 H-H1-0.1469           3.67962  -9.91798  -2.73862 
 H-H1-0.1469           2.9354   -10.11997  -1.15576 
 H-H1-0.1469           4.31337  -11.11328  -1.60248 
 H-H-0.3570            4.82812   0.68479  -0.81644 
 H-HC-0.1060           3.71017   3.4346   -2.70629 
 H-HC-0.1060           4.58817   1.90253  -2.82568 
 H-HC-0.1060           5.24477   3.2262   -1.87372 
 
 The following ModRedundant input section has been read:
 D    *   11   12    * F                                                       
 Stoichiometry    C20H36N4O4
 Framework group  C1[X(C20H36N4O4)]
 Deg. of freedom   186
 Full point group                 C1      NOp   1
 Largest Abelian subgroup         C1      NOp   1
 Largest concise Abelian subgroup C1      NOp   1
                         Standard orientation:                         
 ---------------------------------------------------------------------
 Center     Atomic      Atomic             Coordinates (Angstroms)
 Number     Number       Type             X           Y           Z
 ---------------------------------------------------------------------
      1          6    20001001       -5.068388    2.883893   -0.530061
      2          7    20001014       -4.653891    1.591358   -0.025293
      3          6    20001002       -4.859507    0.478901   -0.768442
      4          8    20001024       -5.167886    0.524722   -1.927126
      5          6    90000001       -4.543418   -0.865513   -0.088719
      6          6    90000002       -5.244088   -1.999650   -0.844125
      7          6    90000002       -3.007386   -1.086200   -0.029503
      8          6    90000002       -2.210556   -1.149271   -1.345072
      9          6    90000002       -1.798704    0.185904   -1.996473
     10          6    20001004       -0.982417    1.083218   -1.096040
     11          6    20001004        0.332854    1.226433   -1.078485
     12          6    90000002        1.344356    0.526821   -1.954361
     13          6    90000002        2.777282    0.526931   -1.391966
     14          6    90000002        2.883133   -0.191717   -0.040206
     15          6    90000002        4.297021   -0.420659    0.554061
     16          6    90000002        4.121594   -1.095579    1.924156
     17          7    20001014        5.034953   -1.309114   -0.333428
     18          6    20001002        6.359904   -1.572734   -0.138316
     19          6    20001001        7.069405   -2.185355   -1.324110
     20          8    20001024        6.925363   -1.338983    0.893554
     21          6    20001002        5.035102    0.936355    0.603800
     22          8    20001024        5.598518    1.355807   -0.371163
     23          7    20001014        4.930097    1.660528    1.738934
     24          6    20001001        5.638415    2.917139    1.870907
     25          7    20001014       -4.970623   -0.841903    1.317826
     26          6    20001002       -6.259966   -0.640891    1.713884
     27          6    20001001       -6.553639   -1.002625    3.155072
     28          8    20001024       -7.099657   -0.198967    0.981926
     29          1    20001035       -6.146403    2.955841   -0.617557
     30          1    20001035       -4.633025    3.051996   -1.504188
     31          1    20001035       -4.714378    3.649723    0.148566
     32          1    20001029       -4.637537    1.470530    0.960313
     33          1    20001034       -4.954794   -2.014026   -1.883853
     34          1    20001034       -4.983233   -2.951075   -0.390272
     35          1    20001034       -6.316078   -1.872591   -0.803861
     36          1    20001034       -2.867711   -2.039631    0.475154
     37          1    20001034       -2.576112   -0.331825    0.621037
     38          1    20001034       -1.300104   -1.699762   -1.126777
     39          1    20001034       -2.750766   -1.739366   -2.078103
     40          1    20001034       -2.677319    0.723223   -2.329171
     41          1    20001034       -1.237994   -0.054826   -2.892847
     42          1    20001033       -1.552852    1.671217   -0.395344
     43          1    20001033        0.743500    1.922466   -0.363874
     44          1    20001034        1.366283    0.979183   -2.938412
     45          1    20001034        1.021261   -0.503035   -2.101325
     46          1    20001034        3.422102    0.058371   -2.130229
     47          1    20001034        3.124460    1.547483   -1.298308
     48          1    20001034        2.416355   -1.171564   -0.114709
     49          1    20001034        2.315545    0.367320    0.694418
     50          1    20001034        3.690754   -2.078640    1.774000
     51          1    20001034        3.439146   -0.534570    2.554166
     52          1    20001034        5.066076   -1.215942    2.433278
     53          1    20001029        4.751265   -1.289143   -1.286231
     54          1    20001034        7.960517   -2.688750   -0.981220
     55          1    20001034        7.358705   -1.389065   -2.003338
     56          1    20001034        6.436882   -2.882607   -1.862751
     57          1    20001029        4.675498    1.192434    2.576416
     58          1    20001035        5.329161    3.392946    2.792260
     59          1    20001035        5.392805    3.563267    1.040954
     60          1    20001035        6.713979    2.773407    1.886914
     61          1    20001029       -4.384657   -1.336714    1.952927
     62          1    20001034       -7.435004   -0.467225    3.476811
     63          1    20001034       -5.724241   -0.770748    3.813769
     64          1    20001034       -6.752524   -2.067436    3.221582
 ---------------------------------------------------------------------
 Rotational constants (GHZ):      0.3322239      0.0497691      0.0496084
 Standard basis: 6-31G(d) (6D, 7F)
 There are   492 symmetry adapted basis functions of A   symmetry.
 Integral buffers will be    131072 words long.
 Raffenetti 1 integral format.
 Two-electron integral symmetry is turned on.
   492 basis functions,   928 primitive gaussians,   492 cartesian basis functions
   108 alpha electrons      108 beta electrons
       nuclear repulsion energy      2680.6781357933 Hartrees.
 NAtoms=   64 NActive=   64 NUniq=   64 SFac= 7.50D-01 NAtFMM=   80 NAOKFM=F Big=T
 One-electron integrals computed using PRISM.
 NBasis=   492 RedAO= T  NBF=   492
 NBsUse=   492 1.00D-06 NBFU=   492
 Harris functional with IExCor=  205 diagonalized for initial guess.
 ExpMin= 1.61D-01 ExpMax= 5.48D+03 ExpMxC= 8.25D+02 IAcc=1 IRadAn=         1 AccDes= 0.00D+00
 HarFok:  IExCor=  205 AccDes= 0.00D+00 IRadAn=         1 IDoV= 1
 ScaDFX=  1.000000  1.000000  1.000000  1.000000
 FoFCou: FMM=F IPFlag=           0 FMFlag=      100000 FMFlg1=           1
         NFxFlg=           0 DoJE=T BraDBF=F KetDBF=T FulRan=T
         Omega=  0.000000  0.000000  1.000000  0.000000  0.000000 ICntrl=     500 IOpCl=  0
         NMat0=    1 NMatS0=    1 NMatT0=    0 NMatD0=    1 NMtDS0=    0 NMtDT0=    0
         I1Cent=           4 NGrid=           0.
 Petite list used in FoFCou.
 Initial guess orbital symmetries:
       Occupied  (A) (A) (A) (A) (A) (A) (A) (A) (A) (A) (A) (A)
                 (A) (A) (A) (A) (A) (A) (A) (A) (A) (A) (A) (A)
                 (A) (A) (A) (A) (A) (A) (A) (A) (A) (A) (A) (A)
                 (A) (A) (A) (A) (A) (A) (A) (A) (A) (A) (A) (A)
                 (A) (A) (A) (A) (A) (A) (A) (A) (A) (A) (A) (A)
                 (A) (A) (A) (A) (A) (A) (A) (A) (A) (A) (A) (A)
                 (A) (A) (A) (A) (A) (A) (A) (A) (A) (A) (A) (A)
                 (A) (A) (A) (A) (A) (A) (A) (A) (A) (A) (A) (A)
                 (A) (A) (A) (A) (A) (A) (A) (A) (A) (A) (A) (A)
       Virtual   (A) (A) (A) (A) (A) (A) (A) (A) (A) (A) (A) (A)
                 (A) (A) (A) (A) (A) (A) (A) (A) (A) (A) (A) (A)
                 (A) (A) (A) (A) (A) (A) (A) (A) (A) (A) (A) (A)
                 (A) (A) (A) (A) (A) (A) (A) (A) (A) (A) (A) (A)
                 (A) (A) (A) (A) (A) (A) (A) (A) (A) (A) (A) (A)
                 (A) (A) (A) (A) (A) (A) (A) (A) (A) (A) (A) (A)
                 (A) (A) (A) (A) (A) (A) (A) (A) (A) (A) (A) (A)
                 (A) (A) (A) (A) (A) (A) (A) (A) (A) (A) (A) (A)
                 (A) (A) (A) (A) (A) (A) (A) (A) (A) (A) (A) (A)
                 (A) (A) (A) (A) (A) (A) (A) (A) (A) (A) (A) (A)
                 (A) (A) (A) (A) (A) (A) (A) (A) (A) (A) (A) (A)
                 (A) (A) (A) (A) (A) (A) (A) (A) (A) (A) (A) (A)
                 (A) (A) (A) (A) (A) (A) (A) (A) (A) (A) (A) (A)
                 (A) (A) (A) (A) (A) (A) (A) (A) (A) (A) (A) (A)
                 (A) (A) (A) (A) (A) (A) (A) (A) (A) (A) (A) (A)
                 (A) (A) (A) (A) (A) (A) (A) (A) (A) (A) (A) (A)
                 (A) (A) (A) (A) (A) (A) (A) (A) (A) (A) (A) (A)
                 (A) (A) (A) (A) (A) (A) (A) (A) (A) (A) (A) (A)
                 (A) (A) (A) (A) (A) (A) (A) (A) (A) (A) (A) (A)
                 (A) (A) (A) (A) (A) (A) (A) (A) (A) (A) (A) (A)
                 (A) (A) (A) (A) (A) (A) (A) (A) (A) (A) (A) (A)
                 (A) (A) (A) (A) (A) (A) (A) (A) (A) (A) (A) (A)
                 (A) (A) (A) (A) (A) (A) (A) (A) (A) (A) (A) (A)
                 (A) (A) (A) (A) (A) (A) (A) (A) (A) (A) (A) (A)
                 (A) (A) (A) (A) (A) (A) (A) (A) (A) (A) (A) (A)
                 (A) (A) (A) (A) (A) (A) (A) (A) (A) (A) (A) (A)
                 (A) (A) (A) (A) (A) (A) (A) (A) (A) (A) (A) (A)
                 (A) (A) (A) (A) (A) (A) (A) (A) (A) (A) (A) (A)
                 (A) (A) (A) (A) (A) (A) (A) (A) (A) (A) (A) (A)
                 (A) (A) (A) (A) (A) (A) (A) (A) (A) (A) (A) (A)
                 (A) (A) (A) (A) (A) (A) (A) (A) (A) (A) (A) (A)
                 (A) (A) (A) (A) (A) (A) (A) (A) (A) (A) (A) (A)
 The electronic state of the initial guess is 1-A.
 Requested convergence on RMS density matrix=1.00D-08 within 128 cycles.
 Requested convergence on MAX density matrix=1.00D-06.
 Requested convergence on             energy=1.00D-06.
 No special actions if energy rises.
 Integral accuracy reduced to 1.0D-05 until final iterations.
 Initial convergence to 1.0D-05 achieved.  Increase integral accuracy.
 SCF Done:  E(RHF) =  -1295.62108559     A.U. after   14 cycles
             Convg  =    0.6280D-08             -V/T =  2.0012

 **********************************************************************

            Population analysis using the SCF density.

 **********************************************************************

 Orbital symmetries:
       Occupied  (A) (A) (A) (A) (A) (A) (A) (A) (A) (A) (A) (A)
                 (A) (A) (A) (A) (A) (A) (A) (A) (A) (A) (A) (A)
                 (A) (A) (A) (A) (A) (A) (A) (A) (A) (A) (A) (A)
                 (A) (A) (A) (A) (A) (A) (A) (A) (A) (A) (A) (A)
                 (A) (A) (A) (A) (A) (A) (A) (A) (A) (A) (A) (A)
                 (A) (A) (A) (A) (A) (A) (A) (A) (A) (A) (A) (A)
                 (A) (A) (A) (A) (A) (A) (A) (A) (A) (A) (A) (A)
                 (A) (A) (A) (A) (A) (A) (A) (A) (A) (A) (A) (A)
                 (A) (A) (A) (A) (A) (A) (A) (A) (A) (A) (A) (A)
       Virtual   (A) (A) (A) (A) (A) (A) (A) (A) (A) (A) (A) (A)
                 (A) (A) (A) (A) (A) (A) (A) (A) (A) (A) (A) (A)
                 (A) (A) (A) (A) (A) (A) (A) (A) (A) (A) (A) (A)
                 (A) (A) (A) (A) (A) (A) (A) (A) (A) (A) (A) (A)
                 (A) (A) (A) (A) (A) (A) (A) (A) (A) (A) (A) (A)
                 (A) (A) (A) (A) (A) (A) (A) (A) (A) (A) (A) (A)
                 (A) (A) (A) (A) (A) (A) (A) (A) (A) (A) (A) (A)
                 (A) (A) (A) (A) (A) (A) (A) (A) (A) (A) (A) (A)
                 (A) (A) (A) (A) (A) (A) (A) (A) (A) (A) (A) (A)
                 (A) (A) (A) (A) (A) (A) (A) (A) (A) (A) (A) (A)
                 (A) (A) (A) (A) (A) (A) (A) (A) (A) (A) (A) (A)
                 (A) (A) (A) (A) (A) (A) (A) (A) (A) (A) (A) (A)
                 (A) (A) (A) (A) (A) (A) (A) (A) (A) (A) (A) (A)
                 (A) (A) (A) (A) (A) (A) (A) (A) (A) (A) (A) (A)
                 (A) (A) (A) (A) (A) (A) (A) (A) (A) (A) (A) (A)
                 (A) (A) (A) (A) (A) (A) (A) (A) (A) (A) (A) (A)
                 (A) (A) (A) (A) (A) (A) (A) (A) (A) (A) (A) (A)
                 (A) (A) (A) (A) (A) (A) (A) (A) (A) (A) (A) (A)
                 (A) (A) (A) (A) (A) (A) (A) (A) (A) (A) (A) (A)
                 (A) (A) (A) (A) (A) (A) (A) (A) (A) (A) (A) (A)
                 (A) (A) (A) (A) (A) (A) (A) (A) (A) (A) (A) (A)
                 (A) (A) (A) (A) (A) (A) (A) (A) (A) (A) (A) (A)
                 (A) (A) (A) (A) (A) (A) (A) (A) (A) (A) (A) (A)
                 (A) (A) (A) (A) (A) (A) (A) (A) (A) (A) (A) (A)
                 (A) (A) (A) (A) (A) (A) (A) (A) (A) (A) (A) (A)
                 (A) (A) (A) (A) (A) (A) (A) (A) (A) (A) (A) (A)
                 (A) (A) (A) (A) (A) (A) (A) (A) (A) (A) (A) (A)
                 (A) (A) (A) (A) (A) (A) (A) (A) (A) (A) (A) (A)
                 (A) (A) (A) (A) (A) (A) (A) (A) (A) (A) (A) (A)
                 (A) (A) (A) (A) (A) (A) (A) (A) (A) (A) (A) (A)
                 (A) (A) (A) (A) (A) (A) (A) (A) (A) (A) (A) (A)
                 (A) (A) (A) (A) (A) (A) (A) (A) (A) (A) (A) (A)
 The electronic state is 1-A.
 Alpha  occ. eigenvalues --  -20.53737 -20.52296 -20.51952 -20.51936 -15.59709
 Alpha  occ. eigenvalues --  -15.58300 -15.57787 -15.57602 -11.36057 -11.34497
 Alpha  occ. eigenvalues --  -11.34031 -11.33949 -11.29138 -11.28862 -11.25406
 Alpha  occ. eigenvalues --  -11.24927 -11.24441 -11.24141 -11.23669 -11.22867
 Alpha  occ. eigenvalues --  -11.22714 -11.22656 -11.22587 -11.22251 -11.22122
 Alpha  occ. eigenvalues --  -11.21920 -11.21695 -11.20967  -1.40674  -1.39669
 Alpha  occ. eigenvalues --   -1.38793  -1.38399  -1.25531  -1.23821  -1.23005
 Alpha  occ. eigenvalues --   -1.22151  -1.10854  -1.09461  -1.07340  -1.04438
 Alpha  occ. eigenvalues --   -1.01400  -0.99452  -0.98957  -0.95577  -0.95408
 Alpha  occ. eigenvalues --   -0.94836  -0.92331  -0.87307  -0.85922  -0.82816
 Alpha  occ. eigenvalues --   -0.81498  -0.79801  -0.78989  -0.77257  -0.77219
 Alpha  occ. eigenvalues --   -0.72377  -0.71642  -0.71264  -0.69090  -0.68132
 Alpha  occ. eigenvalues --   -0.66051  -0.65806  -0.65033  -0.64302  -0.64055
 Alpha  occ. eigenvalues --   -0.62677  -0.62364  -0.61850  -0.61632  -0.61438
 Alpha  occ. eigenvalues --   -0.60856  -0.60026  -0.59875  -0.58888  -0.58434
 Alpha  occ. eigenvalues --   -0.58372  -0.57813  -0.57137  -0.56543  -0.56256
 Alpha  occ. eigenvalues --   -0.55845  -0.55450  -0.55091  -0.54684  -0.54525
 Alpha  occ. eigenvalues --   -0.53548  -0.52878  -0.52753  -0.51980  -0.51555
 Alpha  occ. eigenvalues --   -0.51129  -0.50201  -0.50119  -0.49307  -0.48638
 Alpha  occ. eigenvalues --   -0.48470  -0.47059  -0.46702  -0.44790  -0.42961
 Alpha  occ. eigenvalues --   -0.42040  -0.41799  -0.41318  -0.39379  -0.39173
 Alpha  occ. eigenvalues --   -0.38618  -0.38387  -0.34419
 Alpha virt. eigenvalues --    0.17424   0.18711   0.19299   0.19892   0.20111
 Alpha virt. eigenvalues --    0.20977   0.21349   0.22683   0.23188   0.23736
 Alpha virt. eigenvalues --    0.25311   0.25628   0.25856   0.26679   0.27595
 Alpha virt. eigenvalues --    0.27768   0.28080   0.28668   0.28835   0.29338
 Alpha virt. eigenvalues --    0.29490   0.30555   0.30776   0.31004   0.31387
 Alpha virt. eigenvalues --    0.32086   0.32249   0.32575   0.33025   0.33278
 Alpha virt. eigenvalues --    0.33894   0.33982   0.34378   0.35109   0.35504
 Alpha virt. eigenvalues --    0.35720   0.36286   0.36377   0.36732   0.37032
 Alpha virt. eigenvalues --    0.38252   0.38495   0.38752   0.39579   0.40482
 Alpha virt. eigenvalues --    0.40873   0.41324   0.41748   0.42873   0.43828
 Alpha virt. eigenvalues --    0.44321   0.44632   0.44866   0.45714   0.46176
 Alpha virt. eigenvalues --    0.47559   0.48660   0.48949   0.52020   0.52780
 Alpha virt. eigenvalues --    0.54385   0.55070   0.57119   0.58448   0.59489
 Alpha virt. eigenvalues --    0.59861   0.63194   0.63788   0.68106   0.70074
 Alpha virt. eigenvalues --    0.70626   0.71165   0.71965   0.72380   0.73001
 Alpha virt. eigenvalues --    0.73165   0.74540   0.74826   0.75722   0.75913
 Alpha virt. eigenvalues --    0.76690   0.77026   0.77406   0.78597   0.79405
 Alpha virt. eigenvalues --    0.79970   0.80370   0.80782   0.81431   0.82466
 Alpha virt. eigenvalues --    0.83061   0.83728   0.83990   0.85606   0.85930
 Alpha virt. eigenvalues --    0.86954   0.87855   0.89098   0.90259   0.90751
 Alpha virt. eigenvalues --    0.91872   0.92131   0.92691   0.93196   0.94298
 Alpha virt. eigenvalues --    0.94753   0.96176   0.96846   0.97043   0.97712
 Alpha virt. eigenvalues --    0.98151   0.98731   0.99507   0.99902   1.00908
 Alpha virt. eigenvalues --    1.01535   1.02658   1.02699   1.03430   1.03612
 Alpha virt. eigenvalues --    1.04173   1.04492   1.05563   1.05677   1.07209
 Alpha virt. eigenvalues --    1.07348   1.08007   1.09071   1.09780   1.10906
 Alpha virt. eigenvalues --    1.11790   1.12004   1.12989   1.13593   1.13906
 Alpha virt. eigenvalues --    1.13999   1.14352   1.14734   1.15276   1.15539
 Alpha virt. eigenvalues --    1.16113   1.16908   1.17251   1.17768   1.17816
 Alpha virt. eigenvalues --    1.18177   1.18493   1.18815   1.18887   1.19340
 Alpha virt. eigenvalues --    1.19690   1.20333   1.20746   1.20877   1.21286
 Alpha virt. eigenvalues --    1.21719   1.21953   1.22034   1.22095   1.22555
 Alpha virt. eigenvalues --    1.22895   1.23003   1.24056   1.24355   1.25279
 Alpha virt. eigenvalues --    1.25942   1.26666   1.26834   1.27775   1.28695
 Alpha virt. eigenvalues --    1.28805   1.29859   1.30479   1.31598   1.32612
 Alpha virt. eigenvalues --    1.33355   1.34282   1.34842   1.36930   1.38038
 Alpha virt. eigenvalues --    1.38269   1.39086   1.40392   1.40780   1.43498
 Alpha virt. eigenvalues --    1.43859   1.44531   1.45523   1.46912   1.48668
 Alpha virt. eigenvalues --    1.49649   1.50585   1.53635   1.54156   1.54754
 Alpha virt. eigenvalues --    1.56558   1.58064   1.59056   1.60328   1.61558
 Alpha virt. eigenvalues --    1.61973   1.63822   1.65185   1.66215   1.68023
 Alpha virt. eigenvalues --    1.69276   1.70215   1.71583   1.72292   1.73082
 Alpha virt. eigenvalues --    1.73612   1.74487   1.78086   1.78682   1.78841
 Alpha virt. eigenvalues --    1.80080   1.80906   1.83217   1.85671   1.87224
 Alpha virt. eigenvalues --    1.89079   1.89627   1.91891   1.93791   1.94863
 Alpha virt. eigenvalues --    1.96573   1.98184   1.98677   2.00278   2.01914
 Alpha virt. eigenvalues --    2.02888   2.05760   2.06176   2.06803   2.08211
 Alpha virt. eigenvalues --    2.08967   2.10954   2.11386   2.12014   2.12418
 Alpha virt. eigenvalues --    2.13098   2.13909   2.14510   2.15584   2.15998
 Alpha virt. eigenvalues --    2.16297   2.18086   2.18248   2.18786   2.19117
 Alpha virt. eigenvalues --    2.19537   2.20308   2.21764   2.23082   2.23699
 Alpha virt. eigenvalues --    2.24404   2.24442   2.25606   2.26289   2.27884
 Alpha virt. eigenvalues --    2.28081   2.29136   2.29571   2.30686   2.31632
 Alpha virt. eigenvalues --    2.32435   2.33380   2.33839   2.34779   2.35992
 Alpha virt. eigenvalues --    2.36244   2.37205   2.37825   2.38324   2.39415
 Alpha virt. eigenvalues --    2.39762   2.40876   2.41074   2.42431   2.44590
 Alpha virt. eigenvalues --    2.45097   2.45699   2.47313   2.50266   2.50777
 Alpha virt. eigenvalues --    2.51502   2.51791   2.54001   2.54742   2.54988
 Alpha virt. eigenvalues --    2.56421   2.56809   2.57300   2.58704   2.60421
 Alpha virt. eigenvalues --    2.62554   2.62948   2.63342   2.63953   2.64917
 Alpha virt. eigenvalues --    2.66097   2.66538   2.69439   2.70725   2.71149
 Alpha virt. eigenvalues --    2.71490   2.72578   2.74547   2.75104   2.75591
 Alpha virt. eigenvalues --    2.76936   2.77716   2.78553   2.79499   2.80722
 Alpha virt. eigenvalues --    2.81254   2.82990   2.83520   2.84812   2.85977
 Alpha virt. eigenvalues --    2.87761   2.88221   2.89990   2.91541   2.95666
 Alpha virt. eigenvalues --    2.97086   2.97825   2.98245   2.98724   3.01040
 Alpha virt. eigenvalues --    3.03367   3.04148   3.05180   3.05901   3.06447
 Alpha virt. eigenvalues --    3.10833   3.11270   3.12830   3.13870   3.16085
 Alpha virt. eigenvalues --    3.16577   3.18430   3.24773   3.29526   3.30515
 Alpha virt. eigenvalues --    3.34102   3.34538   3.38673   3.40307   3.42291
 Alpha virt. eigenvalues --    3.42918   3.43298   3.53196   3.55389   3.57289
 Alpha virt. eigenvalues --    3.60061   4.38079   4.40842   4.44620   4.46747
 Alpha virt. eigenvalues --    4.49060   4.51641   4.54957   4.58166   4.61320
 Alpha virt. eigenvalues --    4.63672   4.65576   4.67260   4.68338   4.69972
 Alpha virt. eigenvalues --    4.70339   4.76733   4.78366   4.81491   4.83532
 Alpha virt. eigenvalues --    4.86715   4.88486   4.92679   4.95164   4.98259
 Alpha virt. eigenvalues --    5.02493   5.11852   5.21802   5.23239
          Condensed to atoms (all electrons):
 Mulliken atomic charges:
              1
     1  C   -0.279859
     2  N   -0.783223
     3  C    0.821994
     4  O   -0.628465
     5  C    0.102373
     6  C   -0.472736
     7  C   -0.333829
     8  C   -0.311451
     9  C   -0.372894
    10  C   -0.186108
    11  C   -0.178447
    12  C   -0.338703
    13  C   -0.331207
    14  C   -0.321528
    15  C    0.090644
    16  C   -0.509132
    17  N   -0.787446
    18  C    0.766999
    19  C   -0.595769
    20  O   -0.614021
    21  C    0.819491
    22  O   -0.638639
    23  N   -0.807164
    24  C   -0.275478
    25  N   -0.843053
    26  C    0.744577
    27  C   -0.588674
    28  O   -0.591522
    29  H    0.186897
    30  H    0.198623
    31  H    0.163024
    32  H    0.391242
    33  H    0.198538
    34  H    0.144013
    35  H    0.212828
    36  H    0.160829
    37  H    0.182037
    38  H    0.161956
    39  H    0.179564
    40  H    0.213487
    41  H    0.173099
    42  H    0.180788
    43  H    0.171253
    44  H    0.184996
    45  H    0.162079
    46  H    0.156889
    47  H    0.193456
    48  H    0.175705
    49  H    0.181458
    50  H    0.183778
    51  H    0.147160
    52  H    0.226863
    53  H    0.390175
    54  H    0.211559
    55  H    0.209696
    56  H    0.176958
    57  H    0.395524
    58  H    0.164660
    59  H    0.197980
    60  H    0.186397
    61  H    0.382384
    62  H    0.218928
    63  H    0.177031
    64  H    0.201411
 Sum of Mulliken atomic charges =   0.00000
 Mulliken charges with hydrogens summed into heavy atoms:
              1
     1  C    0.268685
     2  N   -0.391980
     3  C    0.821994
     4  O   -0.628465
     5  C    0.102373
     6  C    0.082643
     7  C    0.009037
     8  C    0.030070
     9  C    0.013692
    10  C   -0.005320
    11  C   -0.007194
    12  C    0.008372
    13  C    0.019138
    14  C    0.035635
    15  C    0.090644
    16  C    0.048670
    17  N   -0.397271
    18  C    0.766999
    19  C    0.002444
    20  O   -0.614021
    21  C    0.819491
    22  O   -0.638639
    23  N   -0.411640
    24  C    0.273560
    25  N   -0.460669
    26  C    0.744577
    27  C    0.008696
    28  O   -0.591522
 Sum of Mulliken charges with hydrogens summed into heavy atoms =   0.00000
 Electronic spatial extent (au):  <R**2>=          21786.4744
 Charge=              0.0000 electrons
 Dipole moment (field-independent basis, Debye):
    X=             -0.2270    Y=             -1.7734    Z=              5.0511  Tot=              5.3582
 Quadrupole moment (field-independent basis, Debye-Ang):
   XX=           -238.2526   YY=           -161.0095   ZZ=           -160.6338
   XY=              4.1988   XZ=            -30.1668   YZ=              9.3828
 Traceless Quadrupole moment (field-independent basis, Debye-Ang):
   XX=            -51.6206   YY=             25.6225   ZZ=             25.9982
   XY=              4.1988   XZ=            -30.1668   YZ=              9.3828
 Octapole moment (field-independent basis, Debye-Ang**2):
  XXX=             36.5565  YYY=             21.1857  ZZZ=             57.2591  XYY=            -26.2112
  XXY=            -34.3384  XXZ=             95.3658  XZZ=             16.9514  YZZ=             -4.2692
  YYZ=             14.5892  XYZ=             71.5919
 Hexadecapole moment (field-independent basis, Debye-Ang**3):
 XXXX=         -28596.0447 YYYY=          -2219.6303 ZZZZ=          -2151.6420 XXXY=            155.9868
 XXXZ=          -1204.0036 YYYX=            -30.1547 YYYZ=             26.8631 ZZZX=           -158.2630
 ZZZY=             25.7704 XXYY=          -4017.0184 XXZZ=          -4084.0384 YYZZ=           -721.3833
 XXYZ=            315.8182 YYXZ=             -5.5332 ZZXY=            112.2597
 N-N= 2.680678135793D+03 E-N=-8.393014777886D+03  KE= 1.294013450647D+03
 1\1\GINC-MOSURA\SP\RHF\6-31G(d)\C20H36N4O4\MARIE\05-Dec-2019\0\\#SP HF
 /6-31G* Geom=(ModRedundant)\\paramfit run\\0,1\C,0,0.,0.,0.\N,0,1.4481
 87,0.,0.\C,0,2.1232,0.47592,1.072365\O,0,1.590179,0.696732,2.124447\C,
 0,3.650505,0.594143,0.921539\C,0,4.198902,1.549248,1.986845\C,0,4.3077
 51,-0.809116,1.023981\C,0,4.133566,-1.622781,2.319066\C,0,2.832729,-2.
 433298,2.484965\C,0,2.579342,-3.423586,1.372579\C,0,2.834093,-4.721989
 ,1.375535\C,0,3.442731,-5.535663,2.492337\C,0,4.048786,-6.876937,2.041
 508\C,0,5.191648,-6.701236,1.032593\C,0,6.007795,-7.957059,0.630774\C,
 0,7.037513,-7.523804,-0.425362\N,0,6.702632,-8.455568,1.809851\C,0,7.3
 85149,-9.637428,1.788964\C,0,7.721687,-10.203415,3.149554\O,0,7.698026
 ,-10.190896,0.771653\C,0,5.025222,-9.048959,0.150119\O,0,4.472288,-9.7
 59454,0.945977\N,0,4.744482,-9.095902,-1.170094\C,0,3.871665,-10.12625
 4,-1.694276\N,0,3.997412,1.070275,-0.425452\C,0,3.587019,2.267163,-0.9
 34086\C,0,4.328148,2.727659,-2.172145\O,0,2.697134,2.905425,-0.447397\
 H,0,-0.403259,1.006147,0.\H,0,-0.36496,-0.516002,0.875939\H,0,-0.34565
 8,-0.522086,-0.883346\H,0,1.904244,0.070913,-0.879357\H,0,3.932135,1.2
 2176,2.980082\H,0,5.28092,1.595925,1.9075\H,0,3.792711,2.540594,1.8483
 95\H,0,5.374584,-0.64325,0.891407\H,0,3.984642,-1.403324,0.174983\H,0,
 4.961565,-2.324757,2.354635\H,0,4.250121,-0.975721,3.182259\H,0,1.9857
 24,-1.764045,2.562723\H,0,2.895638,-2.94811,3.437249\H,0,2.135502,-3.0
 09181,0.481856\H,0,2.579482,-5.276386,0.485828\H,0,2.702273,-5.738006,
 3.256697\H,0,4.218198,-4.939549,2.971807\H,0,4.394221,-7.398673,2.9296
 75\H,0,3.269936,-7.49624,1.616434\H,0,5.906612,-5.97815,1.419253\H,0,4
 .786297,-6.279477,0.120365\H,0,7.739263,-6.83817,0.035108\H,0,6.561064
 ,-6.998237,-1.246432\H,0,7.592723,-8.366105,-0.810082\H,0,6.27151,-8.2
 40123,2.67958\H,0,8.545544,-10.893796,3.051092\H,0,6.857039,-10.743918
 ,3.522869\H,0,7.975214,-9.427116,3.863322\H,0,5.381301,-8.674185,-1.80
 4071\H,0,3.679623,-9.917978,-2.738624\H,0,2.935404,-10.119972,-1.15575
 7\H,0,4.313373,-11.11328,-1.602484\H,0,4.82812,0.684785,-0.816437\H,0,
 3.710173,3.434604,-2.706288\H,0,4.588171,1.902533,-2.825678\H,0,5.2447
 71,3.226201,-1.873716\\Version=EM64L-G09RevA.02\State=1-A\HF=-1295.621
 0856\RMSD=6.280e-09\Dipole=1.2898098,0.3899225,-1.6211949\Quadrupole=3
 .9689356,-29.7517446,25.782809,24.2567618,9.1588839,-14.52706\PG=C01 [
 X(C20H36N4O4)]\\@


 WE HAVE SEEN THAT MAN ON THE AVERAGE DOES NOT LIVE ABOVE
 TWO-AND-TWENTY YEARS.  DURING THESE TWO AND TWENTY
 YEARS HE IS LIABLE TO TWO AND TWENTY THOUSAND EVILS,
 MANY OF WHICH ARE INCURABLE.  YET EVEN IN THIS DREADFUL STATE
 MEN STILL STRUT AND POSE ON THE STAGE OF LIFE.
 THEY MAKE LOVE AT THE RISK OF DESTRUCTION,
 INTRIGUE, CARRY ON WAR, AND FORM PROJECTS, JUST AS IF THEY
 WERE TO LIVE IN LUXURY AND HAPPINESS FOR A THOUSAND
 AGES.

                                              -- VOLTAIRE
 Job cpu time:  0 days  0 hours  5 minutes 31.3 seconds.
 File lengths (MBytes):  RWF=    132 Int=      0 D2E=      0 Chk=     10 Scr=      1
 Normal termination of Gaussian 09 at Thu Dec  5 18:17:53 2019.
