 Entering Gaussian System, Link 0=g09
 Input=CHI7_-90.gau
 Output=CHI7_-90.log
 Initial command:
 /home/marie/Utilities//g09/l1.exe /tmp/g09/Gau-12955.inp -scrdir=/tmp/g09/
 Entering Link 1 = /home/marie/Utilities//g09/l1.exe PID=     12957.
  
 Copyright (c) 1988,1990,1992,1993,1995,1998,2003,2009, Gaussian, Inc.
                  All Rights Reserved.
  
 This is part of the Gaussian(R) 09 program.  It is based on
 the Gaussian(R) 03 system (copyright 2003, Gaussian, Inc.),
 the Gaussian(R) 98 system (copyright 1998, Gaussian, Inc.),
 the Gaussian(R) 94 system (copyright 1995, Gaussian, Inc.),
 the Gaussian 92(TM) system (copyright 1992, Gaussian, Inc.),
 the Gaussian 90(TM) system (copyright 1990, Gaussian, Inc.),
 the Gaussian 88(TM) system (copyright 1988, Gaussian, Inc.),
 the Gaussian 86(TM) system (copyright 1986, Carnegie Mellon
 University), and the Gaussian 82(TM) system (copyright 1983,
 Carnegie Mellon University). Gaussian is a federally registered
 trademark of Gaussian, Inc.
  
 This software contains proprietary and confidential information,
 including trade secrets, belonging to Gaussian, Inc.
  
 This software is provided under written license and may be
 used, copied, transmitted, or stored only in accord with that
 written license.
  
 The following legend is applicable only to US Government
 contracts under FAR:
  
                    RESTRICTED RIGHTS LEGEND
  
 Use, reproduction and disclosure by the US Government is
 subject to restrictions as set forth in subparagraphs (a)
 and (c) of the Commercial Computer Software - Restricted
 Rights clause in FAR 52.227-19.
  
 Gaussian, Inc.
 340 Quinnipiac St., Bldg. 40, Wallingford CT 06492
  
  
 ---------------------------------------------------------------
 Warning -- This program may not be used in any manner that
 competes with the business of Gaussian, Inc. or will provide
 assistance to any competitor of Gaussian, Inc.  The licensee
 of this program is prohibited from giving any competitor of
 Gaussian, Inc. access to this program.  By using this program,
 the user acknowledges that Gaussian, Inc. is engaged in the
 business of creating and licensing software in the field of
 computational chemistry and represents and warrants to the
 licensee that it is not a competitor of Gaussian, Inc. and that
 it will not use this program in any manner prohibited above.
 ---------------------------------------------------------------
  

 Cite this work as:
 Gaussian 09, Revision A.02,
 M. J. Frisch, G. W. Trucks, H. B. Schlegel, G. E. Scuseria, 
 M. A. Robb, J. R. Cheeseman, G. Scalmani, V. Barone, B. Mennucci, 
 G. A. Petersson, H. Nakatsuji, M. Caricato, X. Li, H. P. Hratchian, 
 A. F. Izmaylov, J. Bloino, G. Zheng, J. L. Sonnenberg, M. Hada, 
 M. Ehara, K. Toyota, R. Fukuda, J. Hasegawa, M. Ishida, T. Nakajima, 
 Y. Honda, O. Kitao, H. Nakai, T. Vreven, J. A. Montgomery, Jr., 
 J. E. Peralta, F. Ogliaro, M. Bearpark, J. J. Heyd, E. Brothers, 
 K. N. Kudin, V. N. Staroverov, R. Kobayashi, J. Normand, 
 K. Raghavachari, A. Rendell, J. C. Burant, S. S. Iyengar, J. Tomasi, 
 M. Cossi, N. Rega, J. M. Millam, M. Klene, J. E. Knox, J. B. Cross, 
 V. Bakken, C. Adamo, J. Jaramillo, R. Gomperts, R. E. Stratmann, 
 O. Yazyev, A. J. Austin, R. Cammi, C. Pomelli, J. W. Ochterski, 
 R. L. Martin, K. Morokuma, V. G. Zakrzewski, G. A. Voth, 
 P. Salvador, J. J. Dannenberg, S. Dapprich, A. D. Daniels, 
 O. Farkas, J. B. Foresman, J. V. Ortiz, J. Cioslowski, 
 and D. J. Fox, Gaussian, Inc., Wallingford CT, 2009.
 
 ******************************************
 Gaussian 09:  EM64L-G09RevA.02 11-Jun-2009
                 5-Dec-2019 
 ******************************************
 %chk=CHI7_-90
 %NoSave
 ---------------------------------
 #SP HF/6-31G* Geom=(ModRedundant)
 ---------------------------------
 1/18=120,38=1/1;
 2/12=2,17=6,18=5,40=1/2;
 3/5=1,6=6,7=1,11=9,16=1,25=1,30=1/1,2,3;
 4//1;
 5/5=2,38=5/2;
 6/7=2,8=2,9=2,10=2,28=1/1;
 99/5=1,9=1/99;
 ------------
 paramfit run
 ------------
 Symbolic Z-matrix:
 Charge =  0 Multiplicity = 1
 C-CT--0.3208          0.        0.        0. 
 N-N--0.5622           1.44819   0.        0. 
 C-C-0.8053            2.1232    0.47592   1.07237 
 O-O--0.6151           1.59018   0.69673   2.12445 
 C-CX-0.0839           3.65051   0.59414   0.92154 
 C-CU--0.3230          4.1989    1.54925   1.98685 
 C-CU--0.0657          4.30775  -0.80912   1.02398 
 C-CU--0.0109          4.13357  -1.62278   2.31907 
 C-CU-0.0816           2.83273  -2.4333    2.48497 
 C-CM--0.2354          2.57934  -3.42359   1.37258 
 C-CM--0.2653          2.83409  -4.72199   1.37554 
 C-CU-0.1214           3.44273  -5.53566   2.49234 
 C-CU--0.0354          2.42774  -6.37022   3.29413 
 C-CU--0.0984          1.85028  -5.60763   4.4941 
 C-CU-0.1300           0.68749  -6.26378   5.28279 
 C-CU--0.3561          0.34049  -5.33497   6.45768 
 N-N--0.7186          -0.4648   -6.37985   4.39946 
 C-C-0.8537           -1.59011  -7.05223   4.77978 
 C-CT--0.3868         -2.52876  -7.4137    3.65147 
 O-O--0.6323          -1.82355  -7.33791   5.92129 
 C-C-0.7903            1.12013  -7.68661   5.70365 
 O-O--0.6136           1.01301  -8.60457   4.93567 
 N-N--0.5650           1.70831  -7.82643   6.91132 
 C-CT--0.3231          2.09157  -9.13925   7.38864 
 N-N--0.7191           3.99741   1.07028  -0.42545 
 C-C-0.8539            3.58702   2.26716  -0.93409 
 C-CT--0.3903          4.32815   2.72766  -2.17214 
 O-O--0.6290           2.69713   2.90543  -0.4474 
 H-H1-0.1459          -0.40326   1.00615   0. 
 H-H1-0.1459          -0.36496  -0.516     0.87594 
 H-H1-0.1459          -0.34566  -0.52209  -0.88335 
 H-H-0.3572            1.90424   0.07091  -0.87936 
 H-HC-0.0997           3.93214   1.22176   2.98008 
 H-HC-0.0997           5.28092   1.59593   1.9075 
 H-HC-0.0997           3.79271   2.54059   1.8484 
 H-HC-0.0347           5.37458  -0.64325   0.89141 
 H-HC-0.0347           3.98464  -1.40332   0.17498 
 H-HC-0.0243           4.96157  -2.32476   2.35464 
 H-HC-0.0243           4.25012  -0.97572   3.18226 
 H-HC-0.0171           1.98572  -1.76405   2.56272 
 H-HC-0.0171           2.89564  -2.94811   3.43725 
 H-HA-0.1313           2.1355   -3.00918   0.48186 
 H-HA-0.1359           2.57948  -5.27639   0.48583 
 H-HC-0.0092           3.97152  -4.88991   3.18288 
 H-HC-0.0092           4.19182  -6.20202   2.06638 
 H-HC-0.0318           1.63783  -6.67375   2.61275 
 H-HC-0.0318           2.9008   -7.28443   3.6277 
 H-HC-0.0435           1.49083  -4.63507   4.16477 
 H-HC-0.0435           2.64913  -5.41981   5.20185 
 H-HC-0.1066          -0.04696  -4.40377   6.06103 
 H-HC-0.1066           1.22191  -5.09663   7.0439 
 H-HC-0.1066          -0.41298  -5.76738   7.09882 
 H-H-0.3529           -0.25228  -6.44056   3.43 
 H-HC-0.1047          -3.51475  -7.58846   4.0544 
 H-HC-0.1047          -2.17497  -8.32927   3.18706 
 H-HC-0.1047          -2.57286  -6.63944   2.89321 
 H-H-0.3615            1.56163  -7.12012   7.59316 
 H-H1-0.1469           2.64902  -9.02316   8.30879 
 H-H1-0.1469           2.71865  -9.62519   6.65566 
 H-H1-0.1469           1.22716  -9.76926   7.57203 
 H-H-0.3570            4.82812   0.68479  -0.81644 
 H-HC-0.1060           3.71017   3.4346   -2.70629 
 H-HC-0.1060           4.58817   1.90253  -2.82568 
 H-HC-0.1060           5.24477   3.2262   -1.87372 
 
 The following ModRedundant input section has been read:
 D    *   12   13    * F                                                       
 Stoichiometry    C20H36N4O4
 Framework group  C1[X(C20H36N4O4)]
 Deg. of freedom   186
 Full point group                 C1      NOp   1
 Largest Abelian subgroup         C1      NOp   1
 Largest concise Abelian subgroup C1      NOp   1
                         Standard orientation:                         
 ---------------------------------------------------------------------
 Center     Atomic      Atomic             Coordinates (Angstroms)
 Number     Number       Type             X           Y           Z
 ---------------------------------------------------------------------
      1          6    20001001        3.569248    2.971981   -0.263896
      2          7    20001014        3.951285    1.582708   -0.409544
      3          6    20001002        3.965666    0.769590    0.672464
      4          8    20001024        3.463690    1.077576    1.717888
      5          6    90000001        4.542647   -0.641512    0.459697
      6          6    90000002        4.918169   -1.251886    1.814049
      7          6    90000002        3.518550   -1.528698   -0.299072
      8          6    90000002        2.142257   -1.792388    0.338048
      9          6    90000002        1.052500   -0.717079    0.157001
     10          6    20001004        0.750332   -0.384821   -1.285419
     11          6    20001004       -0.243199   -0.845752   -2.027844
     12          6    90000002       -1.321228   -1.819740   -1.616803
     13          6    90000002       -2.682478   -1.167743   -1.314374
     14          6    90000002       -2.830319   -0.760796    0.157852
     15          6    90000002       -4.078276    0.065635    0.563144
     16          6    90000002       -4.016818    0.284865    2.083543
     17          7    20001014       -4.022301    1.353314   -0.115295
     18          6    20001002       -5.063426    2.234272   -0.060266
     19          6    20001001       -5.025192    3.332097   -1.098593
     20          8    20001024       -5.945583    2.150250    0.748364
     21          6    20001002       -5.341470   -0.681990    0.079279
     22          8    20001024       -5.723321   -0.556604   -1.053152
     23          7    20001014       -5.921956   -1.545051    0.940755
     24          6    20001001       -7.137495   -2.239895    0.569461
     25          7    20001014        5.715866   -0.587792   -0.424667
     26          6    20001002        6.845793    0.120957   -0.140742
     27          6    20001001        8.054188   -0.230963   -0.983389
     28          8    20001024        6.881227    0.969705    0.704546
     29          1    20001035        4.283664    3.526115    0.334013
     30          1    20001035        2.601187    3.036435    0.210895
     31          1    20001035        3.506805    3.418337   -1.248386
     32          1    20001029        4.582041    1.357644   -1.142877
     33          1    20001034        4.069426   -1.277054    2.480333
     34          1    20001034        5.282526   -2.264022    1.665509
     35          1    20001034        5.690996   -0.665810    2.289632
     36          1    20001034        4.003530   -2.494304   -0.424051
     37          1    20001034        3.385541   -1.123802   -1.297394
     38          1    20001034        1.769720   -2.711528   -0.104687
     39          1    20001034        2.256587   -1.993585    1.398153
     40          1    20001034        1.335001    0.188994    0.677181
     41          1    20001034        0.158989   -1.080311    0.652515
     42          1    20001033        1.429757    0.313105   -1.747365
     43          1    20001033       -0.304709   -0.490659   -3.044647
     44          1    20001034       -1.010354   -2.377222   -0.741568
     45          1    20001034       -1.447980   -2.551945   -2.413298
     46          1    20001034       -2.787772   -0.304956   -1.966207
     47          1    20001034       -3.475166   -1.849662   -1.592695
     48          1    20001034       -1.962246   -0.179123    0.460573
     49          1    20001034       -2.830632   -1.657413    0.766479
     50          1    20001034       -3.155217    0.901872    2.310537
     51          1    20001034       -3.891581   -0.654843    2.611414
     52          1    20001034       -4.898324    0.789488    2.449661
     53          1    20001029       -3.516789    1.360555   -0.971517
     54          1    20001034       -5.635251    4.156977   -0.763237
     55          1    20001034       -5.439740    2.946443   -2.025170
     56          1    20001034       -4.014931    3.676152   -1.291934
     57          1    20001029       -5.735392   -1.442486    1.910283
     58          1    20001035       -7.369327   -2.965332    1.338171
     59          1    20001035       -6.991240   -2.755011   -0.368564
     60          1    20001035       -7.973872   -1.557240    0.458964
     61          1    20001029        5.821771   -1.359582   -1.044886
     62          1    20001034        8.742796    0.601287   -0.971072
     63          1    20001034        7.786027   -0.468469   -2.006732
     64          1    20001034        8.549099   -1.095505   -0.552772
 ---------------------------------------------------------------------
 Rotational constants (GHZ):      0.3745678      0.0544585      0.0518727
 Standard basis: 6-31G(d) (6D, 7F)
 There are   492 symmetry adapted basis functions of A   symmetry.
 Integral buffers will be    131072 words long.
 Raffenetti 1 integral format.
 Two-electron integral symmetry is turned on.
   492 basis functions,   928 primitive gaussians,   492 cartesian basis functions
   108 alpha electrons      108 beta electrons
       nuclear repulsion energy      2716.7895925181 Hartrees.
 NAtoms=   64 NActive=   64 NUniq=   64 SFac= 7.50D-01 NAtFMM=   80 NAOKFM=F Big=T
 One-electron integrals computed using PRISM.
 NBasis=   492 RedAO= T  NBF=   492
 NBsUse=   492 1.00D-06 NBFU=   492
 Harris functional with IExCor=  205 diagonalized for initial guess.
 ExpMin= 1.61D-01 ExpMax= 5.48D+03 ExpMxC= 8.25D+02 IAcc=1 IRadAn=         1 AccDes= 0.00D+00
 HarFok:  IExCor=  205 AccDes= 0.00D+00 IRadAn=         1 IDoV= 1
 ScaDFX=  1.000000  1.000000  1.000000  1.000000
 FoFCou: FMM=F IPFlag=           0 FMFlag=      100000 FMFlg1=           1
         NFxFlg=           0 DoJE=T BraDBF=F KetDBF=T FulRan=T
         Omega=  0.000000  0.000000  1.000000  0.000000  0.000000 ICntrl=     500 IOpCl=  0
         NMat0=    1 NMatS0=    1 NMatT0=    0 NMatD0=    1 NMtDS0=    0 NMtDT0=    0
         I1Cent=           4 NGrid=           0.
 Petite list used in FoFCou.
 Initial guess orbital symmetries:
       Occupied  (A) (A) (A) (A) (A) (A) (A) (A) (A) (A) (A) (A)
                 (A) (A) (A) (A) (A) (A) (A) (A) (A) (A) (A) (A)
                 (A) (A) (A) (A) (A) (A) (A) (A) (A) (A) (A) (A)
                 (A) (A) (A) (A) (A) (A) (A) (A) (A) (A) (A) (A)
                 (A) (A) (A) (A) (A) (A) (A) (A) (A) (A) (A) (A)
                 (A) (A) (A) (A) (A) (A) (A) (A) (A) (A) (A) (A)
                 (A) (A) (A) (A) (A) (A) (A) (A) (A) (A) (A) (A)
                 (A) (A) (A) (A) (A) (A) (A) (A) (A) (A) (A) (A)
                 (A) (A) (A) (A) (A) (A) (A) (A) (A) (A) (A) (A)
       Virtual   (A) (A) (A) (A) (A) (A) (A) (A) (A) (A) (A) (A)
                 (A) (A) (A) (A) (A) (A) (A) (A) (A) (A) (A) (A)
                 (A) (A) (A) (A) (A) (A) (A) (A) (A) (A) (A) (A)
                 (A) (A) (A) (A) (A) (A) (A) (A) (A) (A) (A) (A)
                 (A) (A) (A) (A) (A) (A) (A) (A) (A) (A) (A) (A)
                 (A) (A) (A) (A) (A) (A) (A) (A) (A) (A) (A) (A)
                 (A) (A) (A) (A) (A) (A) (A) (A) (A) (A) (A) (A)
                 (A) (A) (A) (A) (A) (A) (A) (A) (A) (A) (A) (A)
                 (A) (A) (A) (A) (A) (A) (A) (A) (A) (A) (A) (A)
                 (A) (A) (A) (A) (A) (A) (A) (A) (A) (A) (A) (A)
                 (A) (A) (A) (A) (A) (A) (A) (A) (A) (A) (A) (A)
                 (A) (A) (A) (A) (A) (A) (A) (A) (A) (A) (A) (A)
                 (A) (A) (A) (A) (A) (A) (A) (A) (A) (A) (A) (A)
                 (A) (A) (A) (A) (A) (A) (A) (A) (A) (A) (A) (A)
                 (A) (A) (A) (A) (A) (A) (A) (A) (A) (A) (A) (A)
                 (A) (A) (A) (A) (A) (A) (A) (A) (A) (A) (A) (A)
                 (A) (A) (A) (A) (A) (A) (A) (A) (A) (A) (A) (A)
                 (A) (A) (A) (A) (A) (A) (A) (A) (A) (A) (A) (A)
                 (A) (A) (A) (A) (A) (A) (A) (A) (A) (A) (A) (A)
                 (A) (A) (A) (A) (A) (A) (A) (A) (A) (A) (A) (A)
                 (A) (A) (A) (A) (A) (A) (A) (A) (A) (A) (A) (A)
                 (A) (A) (A) (A) (A) (A) (A) (A) (A) (A) (A) (A)
                 (A) (A) (A) (A) (A) (A) (A) (A) (A) (A) (A) (A)
                 (A) (A) (A) (A) (A) (A) (A) (A) (A) (A) (A) (A)
                 (A) (A) (A) (A) (A) (A) (A) (A) (A) (A) (A) (A)
                 (A) (A) (A) (A) (A) (A) (A) (A) (A) (A) (A) (A)
                 (A) (A) (A) (A) (A) (A) (A) (A) (A) (A) (A) (A)
                 (A) (A) (A) (A) (A) (A) (A) (A) (A) (A) (A) (A)
                 (A) (A) (A) (A) (A) (A) (A) (A) (A) (A) (A) (A)
                 (A) (A) (A) (A) (A) (A) (A) (A) (A) (A) (A) (A)
                 (A) (A) (A) (A) (A) (A) (A) (A) (A) (A) (A) (A)
                 (A) (A) (A) (A) (A) (A) (A) (A) (A) (A) (A) (A)
 The electronic state of the initial guess is 1-A.
 Requested convergence on RMS density matrix=1.00D-08 within 128 cycles.
 Requested convergence on MAX density matrix=1.00D-06.
 Requested convergence on             energy=1.00D-06.
 No special actions if energy rises.
 Integral accuracy reduced to 1.0D-05 until final iterations.
 Initial convergence to 1.0D-05 achieved.  Increase integral accuracy.
 SCF Done:  E(RHF) =  -1295.62032330     A.U. after   14 cycles
             Convg  =    0.6383D-08             -V/T =  2.0012

 **********************************************************************

            Population analysis using the SCF density.

 **********************************************************************

 Orbital symmetries:
       Occupied  (A) (A) (A) (A) (A) (A) (A) (A) (A) (A) (A) (A)
                 (A) (A) (A) (A) (A) (A) (A) (A) (A) (A) (A) (A)
                 (A) (A) (A) (A) (A) (A) (A) (A) (A) (A) (A) (A)
                 (A) (A) (A) (A) (A) (A) (A) (A) (A) (A) (A) (A)
                 (A) (A) (A) (A) (A) (A) (A) (A) (A) (A) (A) (A)
                 (A) (A) (A) (A) (A) (A) (A) (A) (A) (A) (A) (A)
                 (A) (A) (A) (A) (A) (A) (A) (A) (A) (A) (A) (A)
                 (A) (A) (A) (A) (A) (A) (A) (A) (A) (A) (A) (A)
                 (A) (A) (A) (A) (A) (A) (A) (A) (A) (A) (A) (A)
       Virtual   (A) (A) (A) (A) (A) (A) (A) (A) (A) (A) (A) (A)
                 (A) (A) (A) (A) (A) (A) (A) (A) (A) (A) (A) (A)
                 (A) (A) (A) (A) (A) (A) (A) (A) (A) (A) (A) (A)
                 (A) (A) (A) (A) (A) (A) (A) (A) (A) (A) (A) (A)
                 (A) (A) (A) (A) (A) (A) (A) (A) (A) (A) (A) (A)
                 (A) (A) (A) (A) (A) (A) (A) (A) (A) (A) (A) (A)
                 (A) (A) (A) (A) (A) (A) (A) (A) (A) (A) (A) (A)
                 (A) (A) (A) (A) (A) (A) (A) (A) (A) (A) (A) (A)
                 (A) (A) (A) (A) (A) (A) (A) (A) (A) (A) (A) (A)
                 (A) (A) (A) (A) (A) (A) (A) (A) (A) (A) (A) (A)
                 (A) (A) (A) (A) (A) (A) (A) (A) (A) (A) (A) (A)
                 (A) (A) (A) (A) (A) (A) (A) (A) (A) (A) (A) (A)
                 (A) (A) (A) (A) (A) (A) (A) (A) (A) (A) (A) (A)
                 (A) (A) (A) (A) (A) (A) (A) (A) (A) (A) (A) (A)
                 (A) (A) (A) (A) (A) (A) (A) (A) (A) (A) (A) (A)
                 (A) (A) (A) (A) (A) (A) (A) (A) (A) (A) (A) (A)
                 (A) (A) (A) (A) (A) (A) (A) (A) (A) (A) (A) (A)
                 (A) (A) (A) (A) (A) (A) (A) (A) (A) (A) (A) (A)
                 (A) (A) (A) (A) (A) (A) (A) (A) (A) (A) (A) (A)
                 (A) (A) (A) (A) (A) (A) (A) (A) (A) (A) (A) (A)
                 (A) (A) (A) (A) (A) (A) (A) (A) (A) (A) (A) (A)
                 (A) (A) (A) (A) (A) (A) (A) (A) (A) (A) (A) (A)
                 (A) (A) (A) (A) (A) (A) (A) (A) (A) (A) (A) (A)
                 (A) (A) (A) (A) (A) (A) (A) (A) (A) (A) (A) (A)
                 (A) (A) (A) (A) (A) (A) (A) (A) (A) (A) (A) (A)
                 (A) (A) (A) (A) (A) (A) (A) (A) (A) (A) (A) (A)
                 (A) (A) (A) (A) (A) (A) (A) (A) (A) (A) (A) (A)
                 (A) (A) (A) (A) (A) (A) (A) (A) (A) (A) (A) (A)
                 (A) (A) (A) (A) (A) (A) (A) (A) (A) (A) (A) (A)
                 (A) (A) (A) (A) (A) (A) (A) (A) (A) (A) (A) (A)
                 (A) (A) (A) (A) (A) (A) (A) (A) (A) (A) (A) (A)
                 (A) (A) (A) (A) (A) (A) (A) (A) (A) (A) (A) (A)
 The electronic state is 1-A.
 Alpha  occ. eigenvalues --  -20.53748 -20.52012 -20.51841 -20.51571 -15.59719
 Alpha  occ. eigenvalues --  -15.57913 -15.57676 -15.57282 -11.36065 -11.34048
 Alpha  occ. eigenvalues --  -11.34018 -11.33629 -11.29169 -11.28384 -11.25094
 Alpha  occ. eigenvalues --  -11.25028 -11.24431 -11.24156 -11.23275 -11.22903
 Alpha  occ. eigenvalues --  -11.22500 -11.22405 -11.22323 -11.22258 -11.22165
 Alpha  occ. eigenvalues --  -11.21884 -11.21539 -11.21001  -1.40690  -1.39250
 Alpha  occ. eigenvalues --   -1.38866  -1.37984  -1.25551  -1.23335  -1.22620
 Alpha  occ. eigenvalues --   -1.22220  -1.10890  -1.09257  -1.07206  -1.04261
 Alpha  occ. eigenvalues --   -1.01292  -0.99421  -0.98593  -0.95656  -0.95341
 Alpha  occ. eigenvalues --   -0.94615  -0.92102  -0.87322  -0.85597  -0.82606
 Alpha  occ. eigenvalues --   -0.81542  -0.79354  -0.79056  -0.77322  -0.76782
 Alpha  occ. eigenvalues --   -0.72097  -0.71339  -0.71287  -0.69074  -0.67895
 Alpha  occ. eigenvalues --   -0.66494  -0.65973  -0.64488  -0.64118  -0.63895
 Alpha  occ. eigenvalues --   -0.62723  -0.62454  -0.61730  -0.61305  -0.61067
 Alpha  occ. eigenvalues --   -0.60977  -0.60048  -0.59305  -0.58769  -0.58513
 Alpha  occ. eigenvalues --   -0.58290  -0.57521  -0.56883  -0.56725  -0.55777
 Alpha  occ. eigenvalues --   -0.55371  -0.54833  -0.54819  -0.54617  -0.54076
 Alpha  occ. eigenvalues --   -0.53240  -0.52921  -0.52653  -0.51920  -0.51612
 Alpha  occ. eigenvalues --   -0.51172  -0.50011  -0.49698  -0.49210  -0.48484
 Alpha  occ. eigenvalues --   -0.48252  -0.47131  -0.46380  -0.44980  -0.42986
 Alpha  occ. eigenvalues --   -0.42078  -0.41381  -0.40867  -0.39421  -0.38756
 Alpha  occ. eigenvalues --   -0.38466  -0.38208  -0.34696
 Alpha virt. eigenvalues --    0.17549   0.18706   0.19754   0.19892   0.20141
 Alpha virt. eigenvalues --    0.21672   0.21995   0.23190   0.23289   0.24083
 Alpha virt. eigenvalues --    0.25330   0.25616   0.26457   0.26982   0.27429
 Alpha virt. eigenvalues --    0.27837   0.28383   0.28561   0.29104   0.29254
 Alpha virt. eigenvalues --    0.29439   0.30266   0.30902   0.31402   0.31716
 Alpha virt. eigenvalues --    0.31783   0.32366   0.32796   0.33052   0.33493
 Alpha virt. eigenvalues --    0.33885   0.34341   0.34531   0.34951   0.35145
 Alpha virt. eigenvalues --    0.35559   0.36274   0.36391   0.37500   0.37672
 Alpha virt. eigenvalues --    0.38292   0.38581   0.39210   0.39397   0.39822
 Alpha virt. eigenvalues --    0.40512   0.40775   0.42007   0.43267   0.44549
 Alpha virt. eigenvalues --    0.44828   0.45066   0.45619   0.46084   0.46567
 Alpha virt. eigenvalues --    0.48239   0.49449   0.50189   0.52471   0.52675
 Alpha virt. eigenvalues --    0.53222   0.54977   0.58129   0.58828   0.60133
 Alpha virt. eigenvalues --    0.62301   0.63291   0.64980   0.68161   0.70695
 Alpha virt. eigenvalues --    0.70853   0.71712   0.71888   0.72792   0.73236
 Alpha virt. eigenvalues --    0.73569   0.74046   0.75057   0.75516   0.76471
 Alpha virt. eigenvalues --    0.76611   0.77385   0.77622   0.77945   0.79656
 Alpha virt. eigenvalues --    0.79711   0.80409   0.80616   0.82051   0.82892
 Alpha virt. eigenvalues --    0.83181   0.83957   0.84451   0.85243   0.86143
 Alpha virt. eigenvalues --    0.87180   0.88650   0.89277   0.90195   0.90679
 Alpha virt. eigenvalues --    0.90950   0.92592   0.92900   0.93148   0.94237
 Alpha virt. eigenvalues --    0.94680   0.95018   0.96759   0.97318   0.97690
 Alpha virt. eigenvalues --    0.98445   0.98745   0.99769   1.00166   1.00751
 Alpha virt. eigenvalues --    1.01237   1.01889   1.02422   1.02696   1.03520
 Alpha virt. eigenvalues --    1.04017   1.04753   1.05465   1.06303   1.07395
 Alpha virt. eigenvalues --    1.07830   1.08191   1.09999   1.10498   1.10930
 Alpha virt. eigenvalues --    1.11705   1.12195   1.12420   1.13654   1.14185
 Alpha virt. eigenvalues --    1.14413   1.14745   1.15087   1.15261   1.15617
 Alpha virt. eigenvalues --    1.15822   1.16021   1.16830   1.17632   1.18055
 Alpha virt. eigenvalues --    1.18216   1.18353   1.18610   1.19150   1.19225
 Alpha virt. eigenvalues --    1.19674   1.19972   1.20343   1.20938   1.21147
 Alpha virt. eigenvalues --    1.22091   1.22262   1.22453   1.22562   1.23046
 Alpha virt. eigenvalues --    1.23297   1.23692   1.24664   1.24808   1.25192
 Alpha virt. eigenvalues --    1.26696   1.26872   1.27903   1.28256   1.29328
 Alpha virt. eigenvalues --    1.29910   1.30228   1.32004   1.32635   1.33213
 Alpha virt. eigenvalues --    1.33680   1.33989   1.34995   1.36976   1.37674
 Alpha virt. eigenvalues --    1.38341   1.39622   1.40508   1.41984   1.42705
 Alpha virt. eigenvalues --    1.43779   1.44502   1.45972   1.47900   1.49191
 Alpha virt. eigenvalues --    1.50113   1.50653   1.53763   1.54072   1.54856
 Alpha virt. eigenvalues --    1.56575   1.58830   1.59605   1.60428   1.61172
 Alpha virt. eigenvalues --    1.61662   1.63797   1.64687   1.66923   1.68178
 Alpha virt. eigenvalues --    1.69607   1.71954   1.72221   1.73020   1.73194
 Alpha virt. eigenvalues --    1.73944   1.75637   1.77979   1.79267   1.80093
 Alpha virt. eigenvalues --    1.81275   1.81846   1.83980   1.86134   1.89758
 Alpha virt. eigenvalues --    1.90356   1.91652   1.92191   1.94233   1.95316
 Alpha virt. eigenvalues --    1.96406   1.96575   1.98807   1.99798   2.01415
 Alpha virt. eigenvalues --    2.02616   2.04801   2.05838   2.07483   2.08071
 Alpha virt. eigenvalues --    2.09811   2.10856   2.11148   2.12123   2.12414
 Alpha virt. eigenvalues --    2.12773   2.13283   2.14756   2.15405   2.15856
 Alpha virt. eigenvalues --    2.16591   2.17195   2.18414   2.19029   2.19345
 Alpha virt. eigenvalues --    2.20177   2.20890   2.21920   2.23099   2.24196
 Alpha virt. eigenvalues --    2.24706   2.25117   2.25250   2.26231   2.27334
 Alpha virt. eigenvalues --    2.28126   2.29406   2.30056   2.31127   2.31629
 Alpha virt. eigenvalues --    2.33781   2.34247   2.34687   2.35182   2.36572
 Alpha virt. eigenvalues --    2.37196   2.37998   2.38168   2.38520   2.39114
 Alpha virt. eigenvalues --    2.40493   2.40967   2.42574   2.43425   2.44670
 Alpha virt. eigenvalues --    2.45049   2.46101   2.48065   2.49091   2.50284
 Alpha virt. eigenvalues --    2.51453   2.52447   2.54263   2.54850   2.55685
 Alpha virt. eigenvalues --    2.56724   2.57165   2.57532   2.58954   2.60629
 Alpha virt. eigenvalues --    2.62628   2.63187   2.63631   2.64442   2.64897
 Alpha virt. eigenvalues --    2.66055   2.68347   2.69181   2.70235   2.70744
 Alpha virt. eigenvalues --    2.71066   2.72705   2.74218   2.74821   2.76803
 Alpha virt. eigenvalues --    2.77704   2.78581   2.79047   2.79358   2.80963
 Alpha virt. eigenvalues --    2.81709   2.83480   2.83857   2.86035   2.86647
 Alpha virt. eigenvalues --    2.87947   2.88921   2.90817   2.91893   2.96652
 Alpha virt. eigenvalues --    2.96796   2.97665   2.98229   2.99297   3.00790
 Alpha virt. eigenvalues --    3.03489   3.04489   3.05280   3.06346   3.07049
 Alpha virt. eigenvalues --    3.11141   3.11421   3.12977   3.13868   3.15680
 Alpha virt. eigenvalues --    3.16785   3.18834   3.21900   3.29499   3.30814
 Alpha virt. eigenvalues --    3.34452   3.34517   3.38640   3.40394   3.40845
 Alpha virt. eigenvalues --    3.42853   3.42870   3.53148   3.55797   3.57748
 Alpha virt. eigenvalues --    3.60029   4.38523   4.40790   4.44593   4.46770
 Alpha virt. eigenvalues --    4.49465   4.52056   4.54979   4.57418   4.61491
 Alpha virt. eigenvalues --    4.63839   4.66066   4.67440   4.68365   4.70110
 Alpha virt. eigenvalues --    4.71496   4.77377   4.78850   4.82604   4.84430
 Alpha virt. eigenvalues --    4.87869   4.90119   4.93899   4.95424   5.00618
 Alpha virt. eigenvalues --    5.02210   5.11861   5.21837   5.24001
          Condensed to atoms (all electrons):
 Mulliken atomic charges:
              1
     1  C   -0.279720
     2  N   -0.783401
     3  C    0.821948
     4  O   -0.629067
     5  C    0.102381
     6  C   -0.472675
     7  C   -0.334834
     8  C   -0.311015
     9  C   -0.373634
    10  C   -0.182975
    11  C   -0.177766
    12  C   -0.355986
    13  C   -0.313214
    14  C   -0.333880
    15  C    0.091034
    16  C   -0.510695
    17  N   -0.785904
    18  C    0.767472
    19  C   -0.595885
    20  O   -0.614691
    21  C    0.819185
    22  O   -0.640388
    23  N   -0.806986
    24  C   -0.274896
    25  N   -0.843094
    26  C    0.744481
    27  C   -0.588747
    28  O   -0.591771
    29  H    0.187510
    30  H    0.197241
    31  H    0.163079
    32  H    0.391801
    33  H    0.197930
    34  H    0.144450
    35  H    0.212876
    36  H    0.162053
    37  H    0.183083
    38  H    0.165682
    39  H    0.178643
    40  H    0.212545
    41  H    0.169210
    42  H    0.181651
    43  H    0.173184
    44  H    0.168528
    45  H    0.174669
    46  H    0.155043
    47  H    0.193390
    48  H    0.192784
    49  H    0.174762
    50  H    0.188851
    51  H    0.147531
    52  H    0.226142
    53  H    0.391507
    54  H    0.210840
    55  H    0.207770
    56  H    0.178019
    57  H    0.396299
    58  H    0.164644
    59  H    0.196436
    60  H    0.185761
    61  H    0.382922
    62  H    0.218890
    63  H    0.177539
    64  H    0.201457
 Sum of Mulliken atomic charges =   0.00000
 Mulliken charges with hydrogens summed into heavy atoms:
              1
     1  C    0.268111
     2  N   -0.391600
     3  C    0.821948
     4  O   -0.629067
     5  C    0.102381
     6  C    0.082581
     7  C    0.010302
     8  C    0.033310
     9  C    0.008120
    10  C   -0.001324
    11  C   -0.004582
    12  C   -0.012789
    13  C    0.035218
    14  C    0.033666
    15  C    0.091034
    16  C    0.051829
    17  N   -0.394397
    18  C    0.767472
    19  C    0.000743
    20  O   -0.614691
    21  C    0.819185
    22  O   -0.640388
    23  N   -0.410686
    24  C    0.271945
    25  N   -0.460171
    26  C    0.744481
    27  C    0.009140
    28  O   -0.591771
 Sum of Mulliken charges with hydrogens summed into heavy atoms =   0.00000
 Electronic spatial extent (au):  <R**2>=          20393.8232
 Charge=              0.0000 electrons
 Dipole moment (field-independent basis, Debye):
    X=              4.1981    Y=             -4.3719    Z=             -4.0337  Tot=              7.2807
 Quadrupole moment (field-independent basis, Debye-Ang):
   XX=           -183.3630   YY=           -163.1360   ZZ=           -173.2582
   XY=             -4.5255   XZ=            -32.6833   YZ=            -15.2414
 Traceless Quadrupole moment (field-independent basis, Debye-Ang):
   XX=            -10.1106   YY=             10.1164   ZZ=             -0.0058
   XY=             -4.5255   XZ=            -32.6833   YZ=            -15.2414
 Octapole moment (field-independent basis, Debye-Ang**2):
  XXX=            289.7887  YYY=             31.2401  ZZZ=             -2.6317  XYY=             -8.7527
  XXY=           -217.2262  XXZ=           -103.4757  XZZ=            -21.0043  YZZ=             -5.9073
  YYZ=            -19.5439  XYZ=             26.3215
 Hexadecapole moment (field-independent basis, Debye-Ang**3):
 XXXX=         -22751.8690 YYYY=          -2540.7349 ZZZZ=          -1393.1100 XXXY=             33.8196
 XXXZ=          -1237.9529 YYYX=             49.2853 YYYZ=            -34.9642 ZZZX=            -87.1830
 ZZZY=            -31.5791 XXYY=          -4067.9335 XXZZ=          -4017.1912 YYZZ=           -671.6555
 XXYZ=           -430.5485 YYXZ=             20.6261 ZZXY=              3.5812
 N-N= 2.716789592518D+03 E-N=-8.465572079687D+03  KE= 1.294027417052D+03
 1\1\GINC-MOSURA\SP\RHF\6-31G(d)\C20H36N4O4\MARIE\05-Dec-2019\0\\#SP HF
 /6-31G* Geom=(ModRedundant)\\paramfit run\\0,1\C,0,0.,0.,0.\N,0,1.4481
 87,0.,0.\C,0,2.1232,0.47592,1.072365\O,0,1.590179,0.696732,2.124447\C,
 0,3.650505,0.594143,0.921539\C,0,4.198902,1.549248,1.986845\C,0,4.3077
 51,-0.809116,1.023981\C,0,4.133566,-1.622781,2.319066\C,0,2.832729,-2.
 433298,2.484965\C,0,2.579342,-3.423586,1.372579\C,0,2.834093,-4.721989
 ,1.375535\C,0,3.442731,-5.535663,2.492337\C,0,2.42774,-6.370218,3.2941
 33\C,0,1.850281,-5.60763,4.494097\C,0,0.687494,-6.26378,5.282792\C,0,0
 .340485,-5.334974,6.457677\N,0,-0.464802,-6.37985,4.399462\C,0,-1.5901
 08,-7.052232,4.779783\C,0,-2.528759,-7.413698,3.651474\O,0,-1.823546,-
 7.337911,5.92129\C,0,1.120134,-7.686605,5.703646\O,0,1.013007,-8.60457
 3,4.935668\N,0,1.70831,-7.826434,6.91132\C,0,2.091566,-9.139249,7.3886
 38\N,0,3.997412,1.070275,-0.425452\C,0,3.587019,2.267163,-0.934086\C,0
 ,4.328148,2.727659,-2.172145\O,0,2.697134,2.905425,-0.447397\H,0,-0.40
 3259,1.006147,0.\H,0,-0.36496,-0.516002,0.875939\H,0,-0.345658,-0.5220
 86,-0.883346\H,0,1.904244,0.070913,-0.879357\H,0,3.932135,1.22176,2.98
 0082\H,0,5.28092,1.595925,1.9075\H,0,3.792711,2.540594,1.848395\H,0,5.
 374584,-0.64325,0.891407\H,0,3.984642,-1.403324,0.174983\H,0,4.961565,
 -2.324757,2.354635\H,0,4.250121,-0.975721,3.182259\H,0,1.985724,-1.764
 045,2.562723\H,0,2.895638,-2.94811,3.437249\H,0,2.135502,-3.009181,0.4
 81856\H,0,2.579482,-5.276386,0.485828\H,0,3.971519,-4.889909,3.182881\
 H,0,4.191817,-6.202016,2.066382\H,0,1.637832,-6.673751,2.612747\H,0,2.
 900796,-7.284428,3.627702\H,0,1.490827,-4.635072,4.164767\H,0,2.64913,
 -5.419807,5.201849\H,0,-0.046958,-4.40377,6.061031\H,0,1.221913,-5.096
 628,7.043901\H,0,-0.412975,-5.767383,7.098816\H,0,-0.25228,-6.44056,3.
 429998\H,0,-3.514745,-7.588461,4.054403\H,0,-2.174965,-8.329272,3.1870
 63\H,0,-2.572863,-6.639444,2.893208\H,0,1.561625,-7.120118,7.593165\H,
 0,2.649022,-9.023158,8.308793\H,0,2.718649,-9.625195,6.655665\H,0,1.22
 7156,-9.769264,7.572026\H,0,4.82812,0.684785,-0.816437\H,0,3.710173,3.
 434604,-2.706288\H,0,4.588171,1.902533,-2.825678\H,0,5.244771,3.226201
 ,-1.873716\\Version=EM64L-G09RevA.02\State=1-A\HF=-1295.6203233\RMSD=6
 .383e-09\Dipole=2.2453835,0.1823301,-1.769183\Quadrupole=7.2044382,-29
 .7575904,22.5531522,4.3224378,3.3770556,-5.7963095\PG=C01 [X(C20H36N4O
 4)]\\@


 POCKETA-POCKETA
 BARON VON RICHTOFEN
 SLAUGHTERED THE ALLIES WITH
 HARDLY A CARE.
 KILLED EIGHTY-ONE WITH HIS
 BLOOD-COLORED TRIPLANE, THEN
 UN-AEROBATICALLY
 PLUNGED FROM THE AIR.
   -- TONY HOFFMAN
 Job cpu time:  0 days  0 hours  5 minutes 21.9 seconds.
 File lengths (MBytes):  RWF=    132 Int=      0 D2E=      0 Chk=     10 Scr=      1
 Normal termination of Gaussian 09 at Thu Dec  5 19:05:24 2019.
