 Entering Gaussian System, Link 0=g09
 Input=CHI8_90.gau
 Output=CHI8_90.log
 Initial command:
 /home/marie/Utilities//g09/l1.exe /tmp/g09/Gau-13441.inp -scrdir=/tmp/g09/
 Entering Link 1 = /home/marie/Utilities//g09/l1.exe PID=     13443.
  
 Copyright (c) 1988,1990,1992,1993,1995,1998,2003,2009, Gaussian, Inc.
                  All Rights Reserved.
  
 This is part of the Gaussian(R) 09 program.  It is based on
 the Gaussian(R) 03 system (copyright 2003, Gaussian, Inc.),
 the Gaussian(R) 98 system (copyright 1998, Gaussian, Inc.),
 the Gaussian(R) 94 system (copyright 1995, Gaussian, Inc.),
 the Gaussian 92(TM) system (copyright 1992, Gaussian, Inc.),
 the Gaussian 90(TM) system (copyright 1990, Gaussian, Inc.),
 the Gaussian 88(TM) system (copyright 1988, Gaussian, Inc.),
 the Gaussian 86(TM) system (copyright 1986, Carnegie Mellon
 University), and the Gaussian 82(TM) system (copyright 1983,
 Carnegie Mellon University). Gaussian is a federally registered
 trademark of Gaussian, Inc.
  
 This software contains proprietary and confidential information,
 including trade secrets, belonging to Gaussian, Inc.
  
 This software is provided under written license and may be
 used, copied, transmitted, or stored only in accord with that
 written license.
  
 The following legend is applicable only to US Government
 contracts under FAR:
  
                    RESTRICTED RIGHTS LEGEND
  
 Use, reproduction and disclosure by the US Government is
 subject to restrictions as set forth in subparagraphs (a)
 and (c) of the Commercial Computer Software - Restricted
 Rights clause in FAR 52.227-19.
  
 Gaussian, Inc.
 340 Quinnipiac St., Bldg. 40, Wallingford CT 06492
  
  
 ---------------------------------------------------------------
 Warning -- This program may not be used in any manner that
 competes with the business of Gaussian, Inc. or will provide
 assistance to any competitor of Gaussian, Inc.  The licensee
 of this program is prohibited from giving any competitor of
 Gaussian, Inc. access to this program.  By using this program,
 the user acknowledges that Gaussian, Inc. is engaged in the
 business of creating and licensing software in the field of
 computational chemistry and represents and warrants to the
 licensee that it is not a competitor of Gaussian, Inc. and that
 it will not use this program in any manner prohibited above.
 ---------------------------------------------------------------
  

 Cite this work as:
 Gaussian 09, Revision A.02,
 M. J. Frisch, G. W. Trucks, H. B. Schlegel, G. E. Scuseria, 
 M. A. Robb, J. R. Cheeseman, G. Scalmani, V. Barone, B. Mennucci, 
 G. A. Petersson, H. Nakatsuji, M. Caricato, X. Li, H. P. Hratchian, 
 A. F. Izmaylov, J. Bloino, G. Zheng, J. L. Sonnenberg, M. Hada, 
 M. Ehara, K. Toyota, R. Fukuda, J. Hasegawa, M. Ishida, T. Nakajima, 
 Y. Honda, O. Kitao, H. Nakai, T. Vreven, J. A. Montgomery, Jr., 
 J. E. Peralta, F. Ogliaro, M. Bearpark, J. J. Heyd, E. Brothers, 
 K. N. Kudin, V. N. Staroverov, R. Kobayashi, J. Normand, 
 K. Raghavachari, A. Rendell, J. C. Burant, S. S. Iyengar, J. Tomasi, 
 M. Cossi, N. Rega, J. M. Millam, M. Klene, J. E. Knox, J. B. Cross, 
 V. Bakken, C. Adamo, J. Jaramillo, R. Gomperts, R. E. Stratmann, 
 O. Yazyev, A. J. Austin, R. Cammi, C. Pomelli, J. W. Ochterski, 
 R. L. Martin, K. Morokuma, V. G. Zakrzewski, G. A. Voth, 
 P. Salvador, J. J. Dannenberg, S. Dapprich, A. D. Daniels, 
 O. Farkas, J. B. Foresman, J. V. Ortiz, J. Cioslowski, 
 and D. J. Fox, Gaussian, Inc., Wallingford CT, 2009.
 
 ******************************************
 Gaussian 09:  EM64L-G09RevA.02 11-Jun-2009
                 5-Dec-2019 
 ******************************************
 %chk=CHI8_90
 %NoSave
 ---------------------------------
 #SP HF/6-31G* Geom=(ModRedundant)
 ---------------------------------
 1/18=120,38=1/1;
 2/12=2,17=6,18=5,40=1/2;
 3/5=1,6=6,7=1,11=9,16=1,25=1,30=1/1,2,3;
 4//1;
 5/5=2,38=5/2;
 6/7=2,8=2,9=2,10=2,28=1/1;
 99/5=1,9=1/99;
 ------------
 paramfit run
 ------------
 Symbolic Z-matrix:
 Charge =  0 Multiplicity = 1
 C-CT--0.3208          0.        0.        0. 
 N-N--0.5622           1.44819   0.        0. 
 C-C-0.8053            2.1232    0.47592   1.07237 
 O-O--0.6151           1.59018   0.69673   2.12445 
 C-CX-0.0839           3.65051   0.59414   0.92154 
 C-CU--0.3230          4.1989    1.54925   1.98685 
 C-CU--0.0657          4.30775  -0.80912   1.02398 
 C-CU--0.0109          4.13357  -1.62278   2.31907 
 C-CU-0.0816           2.83273  -2.4333    2.48497 
 C-CM--0.2354          2.57934  -3.42359   1.37258 
 C-CM--0.2653          2.83409  -4.72199   1.37554 
 C-CU-0.1214           3.44273  -5.53566   2.49234 
 C-CU--0.0354          2.42774  -6.37022   3.29413 
 C-CU--0.0984          1.69389  -7.40262   2.4278 
 C-CU-0.1300           2.31994  -8.81464   2.29026 
 C-CU--0.3561          1.3678   -9.66361   1.43228 
 N-N--0.7186           3.60273  -8.68925   1.61184 
 C-C-0.8537            4.44694  -9.7537    1.48021 
 C-CT--0.3868          5.8681   -9.39804   1.1079 
 O-O--0.6323           4.09482  -10.88851   1.64559 
 C-C-0.7903            2.5743   -9.37974   3.70613 
 O-O--0.6136           3.57126  -9.0821    4.3073 
 N-N--0.5650           1.59496  -10.12351   4.26442 
 C-CT--0.3231          1.78883  -10.72554   5.56756 
 N-N--0.7191           3.99741   1.07028  -0.42545 
 C-C-0.8539            3.58702   2.26716  -0.93409 
 C-CT--0.3903          4.32815   2.72766  -2.17214 
 O-O--0.6290           2.69713   2.90543  -0.4474 
 H-H1-0.1459          -0.40326   1.00615   0. 
 H-H1-0.1459          -0.36496  -0.516     0.87594 
 H-H1-0.1459          -0.34566  -0.52209  -0.88335 
 H-H-0.3572            1.90424   0.07091  -0.87936 
 H-HC-0.0997           3.93214   1.22176   2.98008 
 H-HC-0.0997           5.28092   1.59593   1.9075 
 H-HC-0.0997           3.79271   2.54059   1.8484 
 H-HC-0.0347           5.37458  -0.64325   0.89141 
 H-HC-0.0347           3.98464  -1.40332   0.17498 
 H-HC-0.0243           4.96157  -2.32476   2.35464 
 H-HC-0.0243           4.25012  -0.97572   3.18226 
 H-HC-0.0171           1.98572  -1.76405   2.56272 
 H-HC-0.0171           2.89564  -2.94811   3.43725 
 H-HA-0.1313           2.1355   -3.00918   0.48186 
 H-HA-0.1359           2.57948  -5.27639   0.48583 
 H-HC-0.0092           3.97152  -4.88991   3.18288 
 H-HC-0.0092           4.19182  -6.20202   2.06638 
 H-HC-0.0318           2.96562  -6.85691   4.10295 
 H-HC-0.0318           1.71458  -5.70792   3.767 
 H-HC-0.0435           1.58343  -7.01335   1.41795 
 H-HC-0.0435           0.69261  -7.53501   2.82056 
 H-HC-0.1066           1.33532  -9.24546   0.43295 
 H-HC-0.1066           0.3573   -9.64091   1.82694 
 H-HC-0.1066           1.70321  -10.68722   1.35836 
 H-H-0.3529            4.05566  -7.81057   1.71896 
 H-HC-0.1047           6.34573  -10.26198   0.67138 
 H-HC-0.1047           6.40394  -9.12319   2.01148 
 H-HC-0.1047           5.91232  -8.56403   0.41591 
 H-H-0.3615            0.91859  -10.53875   3.66826 
 H-H1-0.1469           0.85517  -11.17133   5.88455 
 H-H1-0.1469           2.07717  -9.96715   6.28053 
 H-H1-0.1469           2.56022  -11.48864   5.5479 
 H-H-0.3570            4.82812   0.68479  -0.81644 
 H-HC-0.1060           3.71017   3.4346   -2.70629 
 H-HC-0.1060           4.58817   1.90253  -2.82568 
 H-HC-0.1060           5.24477   3.2262   -1.87372 
 
 The following ModRedundant input section has been read:
 D    *   13   14    * F                                                       
 Stoichiometry    C20H36N4O4
 Framework group  C1[X(C20H36N4O4)]
 Deg. of freedom   186
 Full point group                 C1      NOp   1
 Largest Abelian subgroup         C1      NOp   1
 Largest concise Abelian subgroup C1      NOp   1
                         Standard orientation:                         
 ---------------------------------------------------------------------
 Center     Atomic      Atomic             Coordinates (Angstroms)
 Number     Number       Type             X           Y           Z
 ---------------------------------------------------------------------
      1          6    20001001        4.411229   -2.132337    2.214914
      2          7    20001014        4.429303   -0.955483    1.371152
      3          6    20001002        4.630144   -1.083251    0.038693
      4          8    20001024        4.574011   -2.141621   -0.523844
      5          6    90000001        4.801397    0.224203   -0.755426
      6          6    90000002        5.466327   -0.077069   -2.102625
      7          6    90000002        3.425459    0.919162   -0.943652
      8          6    90000002        2.311515    0.176919   -1.703809
      9          6    90000002        1.469100   -0.847222   -0.917609
     10          6    20001004        0.785571   -0.274299    0.301745
     11          6    20001004       -0.468985    0.133130    0.405901
     12          6    90000002       -1.528559    0.127165   -0.669748
     13          6    90000002       -2.549790   -1.018066   -0.546882
     14          6    90000002       -3.341652   -0.967215    0.766618
     15          6    90000002       -4.666411   -0.161471    0.787552
     16          6    90000002       -5.285510   -0.321247    2.185636
     17          7    20001014       -4.359262    1.242466    0.550592
     18          6    20001002       -5.346287    2.168084    0.371516
     19          6    20001001       -4.891081    3.476717   -0.232696
     20          8    20001024       -6.490687    1.965669    0.669040
     21          6    20001002       -5.564599   -0.661981   -0.366343
     22          8    20001024       -5.414430   -0.235746   -1.479762
     23          7    20001014       -6.436563   -1.655615   -0.090028
     24          6    20001001       -7.343044   -2.136223   -1.112530
     25          7    20001014        5.603716    1.188486    0.011302
     26          6    20001002        6.884582    0.954365    0.416569
     27          6    20001001        7.649427    2.180267    0.870768
     28          8    20001024        7.369605   -0.141448    0.425902
     29          1    20001035        5.380256   -2.616626    2.252331
     30          1    20001035        3.687952   -2.840543    1.838035
     31          1    20001035        4.122509   -1.835891    3.215471
     32          1    20001029        4.723678   -0.102061    1.785034
     33          1    20001034        4.897428   -0.800692   -2.666234
     34          1    20001034        5.544873    0.839518   -2.679632
     35          1    20001034        6.455632   -0.483683   -1.951403
     36          1    20001034        3.632522    1.834752   -1.493232
     37          1    20001034        3.058604    1.225866    0.030838
     38          1    20001034        1.633359    0.939055   -2.076463
     39          1    20001034        2.723407   -0.313836   -2.579525
     40          1    20001034        2.086983   -1.683356   -0.616834
     41          1    20001034        0.733212   -1.250786   -1.604223
     42          1    20001033        1.404096   -0.199242    1.181464
     43          1    20001033       -0.786258    0.512165    1.364771
     44          1    20001034       -1.069586    0.068570   -1.649226
     45          1    20001034       -2.057730    1.078823   -0.639430
     46          1    20001034       -3.216630   -0.959453   -1.402607
     47          1    20001034       -2.035835   -1.966239   -0.634333
     48          1    20001034       -2.713490   -0.550426    1.550987
     49          1    20001034       -3.580594   -1.980866    1.066231
     50          1    20001034       -4.631046    0.148508    2.910610
     51          1    20001034       -5.374899   -1.367592    2.458679
     52          1    20001034       -6.253794    0.152135    2.249486
     53          1    20001029       -3.529749    1.413629    0.029703
     54          1    20001034       -5.612282    4.244456    0.002905
     55          1    20001034       -4.844397    3.361936   -1.311478
     56          1    20001034       -3.909966    3.771475    0.123551
     57          1    20001029       -6.697831   -1.805831    0.855744
     58          1    20001035       -7.865582   -3.003593   -0.731027
     59          1    20001035       -6.783640   -2.420336   -1.991719
     60          1    20001035       -8.067264   -1.379559   -1.396641
     61          1    20001029        5.338719    2.143124   -0.088658
     62          1    20001034        8.459767    1.868031    1.513288
     63          1    20001034        7.017387    2.887010    1.396685
     64          1    20001034        8.068838    2.679965    0.003475
 ---------------------------------------------------------------------
 Rotational constants (GHZ):      0.3960309      0.0487348      0.0472059
 Standard basis: 6-31G(d) (6D, 7F)
 There are   492 symmetry adapted basis functions of A   symmetry.
 Integral buffers will be    131072 words long.
 Raffenetti 1 integral format.
 Two-electron integral symmetry is turned on.
   492 basis functions,   928 primitive gaussians,   492 cartesian basis functions
   108 alpha electrons      108 beta electrons
       nuclear repulsion energy      2690.4714779892 Hartrees.
 NAtoms=   64 NActive=   64 NUniq=   64 SFac= 7.50D-01 NAtFMM=   80 NAOKFM=F Big=T
 One-electron integrals computed using PRISM.
 NBasis=   492 RedAO= T  NBF=   492
 NBsUse=   492 1.00D-06 NBFU=   492
 Harris functional with IExCor=  205 diagonalized for initial guess.
 ExpMin= 1.61D-01 ExpMax= 5.48D+03 ExpMxC= 8.25D+02 IAcc=1 IRadAn=         1 AccDes= 0.00D+00
 HarFok:  IExCor=  205 AccDes= 0.00D+00 IRadAn=         1 IDoV= 1
 ScaDFX=  1.000000  1.000000  1.000000  1.000000
 FoFCou: FMM=F IPFlag=           0 FMFlag=      100000 FMFlg1=           1
         NFxFlg=           0 DoJE=T BraDBF=F KetDBF=T FulRan=T
         Omega=  0.000000  0.000000  1.000000  0.000000  0.000000 ICntrl=     500 IOpCl=  0
         NMat0=    1 NMatS0=    1 NMatT0=    0 NMatD0=    1 NMtDS0=    0 NMtDT0=    0
         I1Cent=           4 NGrid=           0.
 Petite list used in FoFCou.
 Initial guess orbital symmetries:
       Occupied  (A) (A) (A) (A) (A) (A) (A) (A) (A) (A) (A) (A)
                 (A) (A) (A) (A) (A) (A) (A) (A) (A) (A) (A) (A)
                 (A) (A) (A) (A) (A) (A) (A) (A) (A) (A) (A) (A)
                 (A) (A) (A) (A) (A) (A) (A) (A) (A) (A) (A) (A)
                 (A) (A) (A) (A) (A) (A) (A) (A) (A) (A) (A) (A)
                 (A) (A) (A) (A) (A) (A) (A) (A) (A) (A) (A) (A)
                 (A) (A) (A) (A) (A) (A) (A) (A) (A) (A) (A) (A)
                 (A) (A) (A) (A) (A) (A) (A) (A) (A) (A) (A) (A)
                 (A) (A) (A) (A) (A) (A) (A) (A) (A) (A) (A) (A)
       Virtual   (A) (A) (A) (A) (A) (A) (A) (A) (A) (A) (A) (A)
                 (A) (A) (A) (A) (A) (A) (A) (A) (A) (A) (A) (A)
                 (A) (A) (A) (A) (A) (A) (A) (A) (A) (A) (A) (A)
                 (A) (A) (A) (A) (A) (A) (A) (A) (A) (A) (A) (A)
                 (A) (A) (A) (A) (A) (A) (A) (A) (A) (A) (A) (A)
                 (A) (A) (A) (A) (A) (A) (A) (A) (A) (A) (A) (A)
                 (A) (A) (A) (A) (A) (A) (A) (A) (A) (A) (A) (A)
                 (A) (A) (A) (A) (A) (A) (A) (A) (A) (A) (A) (A)
                 (A) (A) (A) (A) (A) (A) (A) (A) (A) (A) (A) (A)
                 (A) (A) (A) (A) (A) (A) (A) (A) (A) (A) (A) (A)
                 (A) (A) (A) (A) (A) (A) (A) (A) (A) (A) (A) (A)
                 (A) (A) (A) (A) (A) (A) (A) (A) (A) (A) (A) (A)
                 (A) (A) (A) (A) (A) (A) (A) (A) (A) (A) (A) (A)
                 (A) (A) (A) (A) (A) (A) (A) (A) (A) (A) (A) (A)
                 (A) (A) (A) (A) (A) (A) (A) (A) (A) (A) (A) (A)
                 (A) (A) (A) (A) (A) (A) (A) (A) (A) (A) (A) (A)
                 (A) (A) (A) (A) (A) (A) (A) (A) (A) (A) (A) (A)
                 (A) (A) (A) (A) (A) (A) (A) (A) (A) (A) (A) (A)
                 (A) (A) (A) (A) (A) (A) (A) (A) (A) (A) (A) (A)
                 (A) (A) (A) (A) (A) (A) (A) (A) (A) (A) (A) (A)
                 (A) (A) (A) (A) (A) (A) (A) (A) (A) (A) (A) (A)
                 (A) (A) (A) (A) (A) (A) (A) (A) (A) (A) (A) (A)
                 (A) (A) (A) (A) (A) (A) (A) (A) (A) (A) (A) (A)
                 (A) (A) (A) (A) (A) (A) (A) (A) (A) (A) (A) (A)
                 (A) (A) (A) (A) (A) (A) (A) (A) (A) (A) (A) (A)
                 (A) (A) (A) (A) (A) (A) (A) (A) (A) (A) (A) (A)
                 (A) (A) (A) (A) (A) (A) (A) (A) (A) (A) (A) (A)
                 (A) (A) (A) (A) (A) (A) (A) (A) (A) (A) (A) (A)
                 (A) (A) (A) (A) (A) (A) (A) (A) (A) (A) (A) (A)
                 (A) (A) (A) (A) (A) (A) (A) (A) (A) (A) (A) (A)
                 (A) (A) (A) (A) (A) (A) (A) (A) (A) (A) (A) (A)
                 (A) (A) (A) (A) (A) (A) (A) (A) (A) (A) (A) (A)
 The electronic state of the initial guess is 1-A.
 Requested convergence on RMS density matrix=1.00D-08 within 128 cycles.
 Requested convergence on MAX density matrix=1.00D-06.
 Requested convergence on             energy=1.00D-06.
 No special actions if energy rises.
 Integral accuracy reduced to 1.0D-05 until final iterations.
 Initial convergence to 1.0D-05 achieved.  Increase integral accuracy.
 SCF Done:  E(RHF) =  -1295.61308054     A.U. after   14 cycles
             Convg  =    0.5894D-08             -V/T =  2.0012

 **********************************************************************

            Population analysis using the SCF density.

 **********************************************************************

 Orbital symmetries:
       Occupied  (A) (A) (A) (A) (A) (A) (A) (A) (A) (A) (A) (A)
                 (A) (A) (A) (A) (A) (A) (A) (A) (A) (A) (A) (A)
                 (A) (A) (A) (A) (A) (A) (A) (A) (A) (A) (A) (A)
                 (A) (A) (A) (A) (A) (A) (A) (A) (A) (A) (A) (A)
                 (A) (A) (A) (A) (A) (A) (A) (A) (A) (A) (A) (A)
                 (A) (A) (A) (A) (A) (A) (A) (A) (A) (A) (A) (A)
                 (A) (A) (A) (A) (A) (A) (A) (A) (A) (A) (A) (A)
                 (A) (A) (A) (A) (A) (A) (A) (A) (A) (A) (A) (A)
                 (A) (A) (A) (A) (A) (A) (A) (A) (A) (A) (A) (A)
       Virtual   (A) (A) (A) (A) (A) (A) (A) (A) (A) (A) (A) (A)
                 (A) (A) (A) (A) (A) (A) (A) (A) (A) (A) (A) (A)
                 (A) (A) (A) (A) (A) (A) (A) (A) (A) (A) (A) (A)
                 (A) (A) (A) (A) (A) (A) (A) (A) (A) (A) (A) (A)
                 (A) (A) (A) (A) (A) (A) (A) (A) (A) (A) (A) (A)
                 (A) (A) (A) (A) (A) (A) (A) (A) (A) (A) (A) (A)
                 (A) (A) (A) (A) (A) (A) (A) (A) (A) (A) (A) (A)
                 (A) (A) (A) (A) (A) (A) (A) (A) (A) (A) (A) (A)
                 (A) (A) (A) (A) (A) (A) (A) (A) (A) (A) (A) (A)
                 (A) (A) (A) (A) (A) (A) (A) (A) (A) (A) (A) (A)
                 (A) (A) (A) (A) (A) (A) (A) (A) (A) (A) (A) (A)
                 (A) (A) (A) (A) (A) (A) (A) (A) (A) (A) (A) (A)
                 (A) (A) (A) (A) (A) (A) (A) (A) (A) (A) (A) (A)
                 (A) (A) (A) (A) (A) (A) (A) (A) (A) (A) (A) (A)
                 (A) (A) (A) (A) (A) (A) (A) (A) (A) (A) (A) (A)
                 (A) (A) (A) (A) (A) (A) (A) (A) (A) (A) (A) (A)
                 (A) (A) (A) (A) (A) (A) (A) (A) (A) (A) (A) (A)
                 (A) (A) (A) (A) (A) (A) (A) (A) (A) (A) (A) (A)
                 (A) (A) (A) (A) (A) (A) (A) (A) (A) (A) (A) (A)
                 (A) (A) (A) (A) (A) (A) (A) (A) (A) (A) (A) (A)
                 (A) (A) (A) (A) (A) (A) (A) (A) (A) (A) (A) (A)
                 (A) (A) (A) (A) (A) (A) (A) (A) (A) (A) (A) (A)
                 (A) (A) (A) (A) (A) (A) (A) (A) (A) (A) (A) (A)
                 (A) (A) (A) (A) (A) (A) (A) (A) (A) (A) (A) (A)
                 (A) (A) (A) (A) (A) (A) (A) (A) (A) (A) (A) (A)
                 (A) (A) (A) (A) (A) (A) (A) (A) (A) (A) (A) (A)
                 (A) (A) (A) (A) (A) (A) (A) (A) (A) (A) (A) (A)
                 (A) (A) (A) (A) (A) (A) (A) (A) (A) (A) (A) (A)
                 (A) (A) (A) (A) (A) (A) (A) (A) (A) (A) (A) (A)
                 (A) (A) (A) (A) (A) (A) (A) (A) (A) (A) (A) (A)
                 (A) (A) (A) (A) (A) (A) (A) (A) (A) (A) (A) (A)
                 (A) (A) (A) (A) (A) (A) (A) (A) (A) (A) (A) (A)
 The electronic state is 1-A.
 Alpha  occ. eigenvalues --  -20.53718 -20.52145 -20.51963 -20.51874 -15.59687
 Alpha  occ. eigenvalues --  -15.58114 -15.57639 -15.57459 -11.36036 -11.34330
 Alpha  occ. eigenvalues --  -11.33971 -11.33902 -11.29127 -11.28586 -11.25212
 Alpha  occ. eigenvalues --  -11.24992 -11.24409 -11.24124 -11.23207 -11.22955
 Alpha  occ. eigenvalues --  -11.22849 -11.22670 -11.22453 -11.22261 -11.21886
 Alpha  occ. eigenvalues --  -11.21824 -11.21816 -11.20941  -1.40658  -1.39573
 Alpha  occ. eigenvalues --   -1.38818  -1.38304  -1.25517  -1.23683  -1.22838
 Alpha  occ. eigenvalues --   -1.22182  -1.10926  -1.09321  -1.07330  -1.04379
 Alpha  occ. eigenvalues --   -1.01300  -0.99444  -0.98874  -0.95615  -0.95301
 Alpha  occ. eigenvalues --   -0.94701  -0.92288  -0.87446  -0.86064  -0.82940
 Alpha  occ. eigenvalues --   -0.81596  -0.79615  -0.78637  -0.77285  -0.77069
 Alpha  occ. eigenvalues --   -0.72259  -0.71572  -0.71242  -0.69040  -0.67680
 Alpha  occ. eigenvalues --   -0.67153  -0.65957  -0.64737  -0.64159  -0.63833
 Alpha  occ. eigenvalues --   -0.62853  -0.62515  -0.61717  -0.61339  -0.61028
 Alpha  occ. eigenvalues --   -0.60666  -0.60145  -0.59582  -0.59171  -0.58485
 Alpha  occ. eigenvalues --   -0.58314  -0.58058  -0.57312  -0.56620  -0.56197
 Alpha  occ. eigenvalues --   -0.55720  -0.55228  -0.54991  -0.54630  -0.53786
 Alpha  occ. eigenvalues --   -0.53370  -0.53208  -0.52867  -0.52185  -0.51146
 Alpha  occ. eigenvalues --   -0.50795  -0.50542  -0.49758  -0.49491  -0.48653
 Alpha  occ. eigenvalues --   -0.48328  -0.47072  -0.46293  -0.44769  -0.42951
 Alpha  occ. eigenvalues --   -0.42037  -0.41553  -0.41106  -0.39381  -0.39037
 Alpha  occ. eigenvalues --   -0.38427  -0.38343  -0.34746
 Alpha virt. eigenvalues --    0.17204   0.18730   0.19333   0.19899   0.20176
 Alpha virt. eigenvalues --    0.21117   0.21844   0.22970   0.23449   0.23592
 Alpha virt. eigenvalues --    0.25150   0.25319   0.26459   0.27083   0.27794
 Alpha virt. eigenvalues --    0.27924   0.28440   0.28882   0.29294   0.29446
 Alpha virt. eigenvalues --    0.29858   0.30833   0.31011   0.31753   0.32021
 Alpha virt. eigenvalues --    0.32174   0.32490   0.33159   0.33278   0.33630
 Alpha virt. eigenvalues --    0.34202   0.34538   0.34866   0.35048   0.35201
 Alpha virt. eigenvalues --    0.35746   0.36483   0.36752   0.37380   0.37966
 Alpha virt. eigenvalues --    0.38357   0.38753   0.39222   0.39593   0.40064
 Alpha virt. eigenvalues --    0.40793   0.41389   0.41882   0.42135   0.43995
 Alpha virt. eigenvalues --    0.44833   0.45054   0.45680   0.46617   0.47538
 Alpha virt. eigenvalues --    0.48682   0.49484   0.49874   0.52515   0.53079
 Alpha virt. eigenvalues --    0.53503   0.55036   0.58594   0.58942   0.59843
 Alpha virt. eigenvalues --    0.61719   0.63251   0.64203   0.68660   0.69873
 Alpha virt. eigenvalues --    0.70827   0.71765   0.71843   0.72610   0.73230
 Alpha virt. eigenvalues --    0.73759   0.74336   0.75185   0.76043   0.76513
 Alpha virt. eigenvalues --    0.76665   0.77436   0.77735   0.78012   0.79219
 Alpha virt. eigenvalues --    0.79806   0.80465   0.80725   0.81889   0.82180
 Alpha virt. eigenvalues --    0.82519   0.83210   0.84144   0.85721   0.86140
 Alpha virt. eigenvalues --    0.87275   0.88209   0.89010   0.90194   0.90384
 Alpha virt. eigenvalues --    0.91548   0.92530   0.92638   0.93627   0.93928
 Alpha virt. eigenvalues --    0.94882   0.95136   0.96486   0.96807   0.97775
 Alpha virt. eigenvalues --    0.98540   0.98659   0.99728   0.99903   1.00603
 Alpha virt. eigenvalues --    1.00737   1.01778   1.02472   1.02668   1.03701
 Alpha virt. eigenvalues --    1.04045   1.04758   1.05175   1.05629   1.06942
 Alpha virt. eigenvalues --    1.07513   1.08084   1.08756   1.10332   1.11018
 Alpha virt. eigenvalues --    1.11799   1.12043   1.12996   1.13430   1.14001
 Alpha virt. eigenvalues --    1.14231   1.14449   1.15292   1.15584   1.15926
 Alpha virt. eigenvalues --    1.16040   1.16323   1.16846   1.17568   1.17997
 Alpha virt. eigenvalues --    1.18041   1.18631   1.18845   1.19131   1.19546
 Alpha virt. eigenvalues --    1.19730   1.20370   1.20564   1.20955   1.21841
 Alpha virt. eigenvalues --    1.21901   1.22247   1.22611   1.22751   1.23037
 Alpha virt. eigenvalues --    1.23235   1.23838   1.24188   1.24667   1.25813
 Alpha virt. eigenvalues --    1.26832   1.27188   1.27809   1.28886   1.29212
 Alpha virt. eigenvalues --    1.29795   1.30540   1.30871   1.31864   1.32476
 Alpha virt. eigenvalues --    1.33433   1.33601   1.35559   1.37425   1.38314
 Alpha virt. eigenvalues --    1.39225   1.40233   1.41542   1.42343   1.43842
 Alpha virt. eigenvalues --    1.44419   1.45313   1.47575   1.49569   1.50286
 Alpha virt. eigenvalues --    1.50719   1.52216   1.53448   1.54224   1.55351
 Alpha virt. eigenvalues --    1.56698   1.59497   1.60216   1.60676   1.61745
 Alpha virt. eigenvalues --    1.62835   1.63546   1.64370   1.66187   1.68282
 Alpha virt. eigenvalues --    1.70076   1.71316   1.72274   1.72612   1.73309
 Alpha virt. eigenvalues --    1.73965   1.75891   1.78318   1.78693   1.79623
 Alpha virt. eigenvalues --    1.80272   1.82518   1.83791   1.87378   1.88683
 Alpha virt. eigenvalues --    1.90312   1.90960   1.92461   1.93633   1.95425
 Alpha virt. eigenvalues --    1.96318   1.96797   1.97915   1.99845   2.01235
 Alpha virt. eigenvalues --    2.02542   2.04242   2.05878   2.07504   2.08654
 Alpha virt. eigenvalues --    2.09009   2.09584   2.11043   2.11800   2.12384
 Alpha virt. eigenvalues --    2.12491   2.13646   2.14087   2.15152   2.15495
 Alpha virt. eigenvalues --    2.16211   2.17245   2.18530   2.19032   2.19816
 Alpha virt. eigenvalues --    2.20811   2.21783   2.21885   2.23100   2.24198
 Alpha virt. eigenvalues --    2.24525   2.24989   2.25918   2.26643   2.27874
 Alpha virt. eigenvalues --    2.28828   2.29701   2.30130   2.31157   2.32471
 Alpha virt. eigenvalues --    2.33388   2.34398   2.34497   2.34978   2.35883
 Alpha virt. eigenvalues --    2.36931   2.37855   2.38407   2.39513   2.39914
 Alpha virt. eigenvalues --    2.40765   2.41310   2.43364   2.44929   2.45210
 Alpha virt. eigenvalues --    2.45442   2.46241   2.46612   2.48044   2.50495
 Alpha virt. eigenvalues --    2.51049   2.53262   2.54399   2.54756   2.55914
 Alpha virt. eigenvalues --    2.56777   2.56918   2.57496   2.58837   2.60438
 Alpha virt. eigenvalues --    2.62284   2.63076   2.63706   2.64446   2.65427
 Alpha virt. eigenvalues --    2.66294   2.66616   2.70065   2.70862   2.71623
 Alpha virt. eigenvalues --    2.72547   2.74302   2.74911   2.75682   2.76620
 Alpha virt. eigenvalues --    2.76980   2.77501   2.78647   2.79276   2.80295
 Alpha virt. eigenvalues --    2.81530   2.82742   2.83873   2.85600   2.85925
 Alpha virt. eigenvalues --    2.87806   2.88949   2.90883   2.91802   2.95128
 Alpha virt. eigenvalues --    2.96858   2.97817   2.98266   2.98945   3.01966
 Alpha virt. eigenvalues --    3.02880   3.04482   3.05709   3.06397   3.06970
 Alpha virt. eigenvalues --    3.10558   3.11275   3.12636   3.13947   3.14651
 Alpha virt. eigenvalues --    3.15644   3.16646   3.21830   3.29511   3.30074
 Alpha virt. eigenvalues --    3.34459   3.34537   3.38675   3.40619   3.41057
 Alpha virt. eigenvalues --    3.42902   3.43029   3.53186   3.55702   3.57736
 Alpha virt. eigenvalues --    3.60060   4.39442   4.40828   4.44621   4.46768
 Alpha virt. eigenvalues --    4.49878   4.54256   4.55273   4.57607   4.61657
 Alpha virt. eigenvalues --    4.63724   4.66480   4.67642   4.68405   4.69524
 Alpha virt. eigenvalues --    4.71479   4.76640   4.78499   4.82373   4.83846
 Alpha virt. eigenvalues --    4.87869   4.92057   4.95058   4.95405   4.99950
 Alpha virt. eigenvalues --    5.02382   5.11858   5.21835   5.26157
          Condensed to atoms (all electrons):
 Mulliken atomic charges:
              1
     1  C   -0.279727
     2  N   -0.783531
     3  C    0.821796
     4  O   -0.628574
     5  C    0.102380
     6  C   -0.472790
     7  C   -0.334622
     8  C   -0.311835
     9  C   -0.373964
    10  C   -0.180211
    11  C   -0.173384
    12  C   -0.362656
    13  C   -0.340132
    14  C   -0.337661
    15  C    0.087996
    16  C   -0.509103
    17  N   -0.809426
    18  C    0.768220
    19  C   -0.599753
    20  O   -0.613594
    21  C    0.819751
    22  O   -0.638767
    23  N   -0.805138
    24  C   -0.275515
    25  N   -0.843115
    26  C    0.744530
    27  C   -0.588718
    28  O   -0.591755
    29  H    0.187253
    30  H    0.197718
    31  H    0.162873
    32  H    0.391601
    33  H    0.198576
    34  H    0.144547
    35  H    0.212749
    36  H    0.162071
    37  H    0.182025
    38  H    0.165150
    39  H    0.180315
    40  H    0.213562
    41  H    0.173220
    42  H    0.182226
    43  H    0.171981
    44  H    0.184131
    45  H    0.138472
    46  H    0.221876
    47  H    0.175210
    48  H    0.184073
    49  H    0.181862
    50  H    0.183261
    51  H    0.149132
    52  H    0.225847
    53  H    0.417147
    54  H    0.211779
    55  H    0.208853
    56  H    0.175740
    57  H    0.396513
    58  H    0.165626
    59  H    0.197928
    60  H    0.185518
    61  H    0.382769
    62  H    0.218798
    63  H    0.177344
    64  H    0.201552
 Sum of Mulliken atomic charges =   0.00000
 Mulliken charges with hydrogens summed into heavy atoms:
              1
     1  C    0.268118
     2  N   -0.391930
     3  C    0.821796
     4  O   -0.628574
     5  C    0.102380
     6  C    0.083081
     7  C    0.009474
     8  C    0.033631
     9  C    0.012817
    10  C    0.002015
    11  C   -0.001403
    12  C   -0.040053
    13  C    0.056954
    14  C    0.028274
    15  C    0.087996
    16  C    0.049137
    17  N   -0.392279
    18  C    0.768220
    19  C   -0.003382
    20  O   -0.613594
    21  C    0.819751
    22  O   -0.638767
    23  N   -0.408625
    24  C    0.273557
    25  N   -0.460346
    26  C    0.744530
    27  C    0.008975
    28  O   -0.591755
 Sum of Mulliken charges with hydrogens summed into heavy atoms =   0.00000
 Electronic spatial extent (au):  <R**2>=          22295.1630
 Charge=              0.0000 electrons
 Dipole moment (field-independent basis, Debye):
    X=              1.2987    Y=              3.7736    Z=              2.7545  Tot=              4.8491
 Quadrupole moment (field-independent basis, Debye-Ang):
   XX=           -202.7354   YY=           -164.5916   ZZ=           -168.0213
   XY=             52.0994   XZ=              0.6382   YZ=             -6.4357
 Traceless Quadrupole moment (field-independent basis, Debye-Ang):
   XX=            -24.2860   YY=             13.8578   ZZ=             10.4282
   XY=             52.0994   XZ=              0.6382   YZ=             -6.4357
 Octapole moment (field-independent basis, Debye-Ang**2):
  XXX=            -10.5863  YYY=             38.0908  ZZZ=             18.4979  XYY=            -23.0901
  XXY=             47.2932  XXZ=             63.0799  XZZ=             42.1257  YZZ=             -8.8242
  YYZ=              5.4664  XYZ=              7.6738
 Hexadecapole moment (field-independent basis, Debye-Ang**3):
 XXXX=         -27199.1924 YYYY=          -2274.2245 ZZZZ=          -1497.6332 XXXY=           2635.9957
 XXXZ=            121.5645 YYYX=             78.8518 YYYZ=            -33.9229 ZZZX=             55.7080
 ZZZY=              2.2002 XXYY=          -4301.8698 XXZZ=          -4382.0405 YYZZ=           -625.1067
 XXYZ=           -148.5646 YYXZ=            117.0558 ZZXY=              6.7186
 N-N= 2.690471477989D+03 E-N=-8.412765414725D+03  KE= 1.294074320438D+03
 1\1\GINC-MOSURA\SP\RHF\6-31G(d)\C20H36N4O4\MARIE\05-Dec-2019\0\\#SP HF
 /6-31G* Geom=(ModRedundant)\\paramfit run\\0,1\C,0,0.,0.,0.\N,0,1.4481
 87,0.,0.\C,0,2.1232,0.47592,1.072365\O,0,1.590179,0.696732,2.124447\C,
 0,3.650505,0.594143,0.921539\C,0,4.198902,1.549248,1.986845\C,0,4.3077
 51,-0.809116,1.023981\C,0,4.133566,-1.622781,2.319066\C,0,2.832729,-2.
 433298,2.484965\C,0,2.579342,-3.423586,1.372579\C,0,2.834093,-4.721989
 ,1.375535\C,0,3.442731,-5.535663,2.492337\C,0,2.42774,-6.370218,3.2941
 33\C,0,1.693892,-7.402618,2.427801\C,0,2.319941,-8.814635,2.290263\C,0
 ,1.367804,-9.663609,1.432283\N,0,3.60273,-8.689252,1.611836\C,0,4.4469
 4,-9.753695,1.48021\C,0,5.868102,-9.398042,1.107899\O,0,4.09482,-10.88
 8509,1.64559\C,0,2.574295,-9.379743,3.706131\O,0,3.57126,-9.082101,4.3
 07297\N,0,1.594957,-10.12351,4.26442\C,0,1.788827,-10.72554,5.567561\N
 ,0,3.997412,1.070275,-0.425452\C,0,3.587019,2.267163,-0.934086\C,0,4.3
 28148,2.727659,-2.172145\O,0,2.697134,2.905425,-0.447397\H,0,-0.403259
 ,1.006147,0.\H,0,-0.36496,-0.516002,0.875939\H,0,-0.345658,-0.522086,-
 0.883346\H,0,1.904244,0.070913,-0.879357\H,0,3.932135,1.22176,2.980082
 \H,0,5.28092,1.595925,1.9075\H,0,3.792711,2.540594,1.848395\H,0,5.3745
 84,-0.64325,0.891407\H,0,3.984642,-1.403324,0.174983\H,0,4.961565,-2.3
 24757,2.354635\H,0,4.250121,-0.975721,3.182259\H,0,1.985724,-1.764045,
 2.562723\H,0,2.895638,-2.94811,3.437249\H,0,2.135502,-3.009181,0.48185
 6\H,0,2.579482,-5.276386,0.485828\H,0,3.971519,-4.889909,3.182881\H,0,
 4.191817,-6.202016,2.066382\H,0,2.965623,-6.85691,4.102952\H,0,1.71458
 4,-5.707921,3.766998\H,0,1.583431,-7.013347,1.417949\H,0,0.692613,-7.5
 35009,2.820563\H,0,1.335319,-9.245457,0.432946\H,0,0.357303,-9.640912,
 1.82694\H,0,1.703207,-10.68722,1.358357\H,0,4.055663,-7.810566,1.71895
 8\H,0,6.345727,-10.26198,0.671382\H,0,6.403944,-9.123188,2.011477\H,0,
 5.912317,-8.56403,0.415909\H,0,0.918586,-10.53875,3.668258\H,0,0.85517
 ,-11.171326,5.884549\H,0,2.077172,-9.96715,6.280532\H,0,2.560216,-11.4
 88643,5.547899\H,0,4.82812,0.684785,-0.816437\H,0,3.710173,3.434604,-2
 .706288\H,0,4.588171,1.902533,-2.825678\H,0,5.244771,3.226201,-1.87371
 6\\Version=EM64L-G09RevA.02\State=1-A\HF=-1295.6130805\RMSD=5.894e-09\
 Dipole=0.5814564,0.0508472,-1.8162872\Quadrupole=14.7426516,-28.519022
 1,13.7763706,29.8246379,-7.6653393,-14.5303155\PG=C01 [X(C20H36N4O4)]\
 \@


      HUMANKIND PERIODICALLY GOES THROUGH A SPEEDUP OF ITS AFFAIRS, 
      THEREBY EXPERIENCING THE RACE BETWEEN THE RENEWABLE VITALITY
      OF THE LIVING, AND THE BECKONING VITIATION OF DECADENCE.
      IN THIS PERIODIC RACE, ANY PAUSE BECOMES A LUXURY.
      ONLY THEN CAN ONE REFLECT THAT ALL IS PERMITTED;
      ALL IS POSSIBLE.

                              -- THE APOCRYPHA OF MUAD'DIB
                                 CHILDREN OF DUNE, BY FRANK HERBERT
 Job cpu time:  0 days  0 hours  5 minutes 13.2 seconds.
 File lengths (MBytes):  RWF=    132 Int=      0 D2E=      0 Chk=     10 Scr=      1
 Normal termination of Gaussian 09 at Thu Dec  5 19:15:01 2019.
