 Entering Gaussian System, Link 0=g09
 Input=CHI8_-80.gau
 Output=CHI8_-80.log
 Initial command:
 /home/marie/Utilities//g09/l1.exe /tmp/g09/Gau-14070.inp -scrdir=/tmp/g09/
 Entering Link 1 = /home/marie/Utilities//g09/l1.exe PID=     14072.
  
 Copyright (c) 1988,1990,1992,1993,1995,1998,2003,2009, Gaussian, Inc.
                  All Rights Reserved.
  
 This is part of the Gaussian(R) 09 program.  It is based on
 the Gaussian(R) 03 system (copyright 2003, Gaussian, Inc.),
 the Gaussian(R) 98 system (copyright 1998, Gaussian, Inc.),
 the Gaussian(R) 94 system (copyright 1995, Gaussian, Inc.),
 the Gaussian 92(TM) system (copyright 1992, Gaussian, Inc.),
 the Gaussian 90(TM) system (copyright 1990, Gaussian, Inc.),
 the Gaussian 88(TM) system (copyright 1988, Gaussian, Inc.),
 the Gaussian 86(TM) system (copyright 1986, Carnegie Mellon
 University), and the Gaussian 82(TM) system (copyright 1983,
 Carnegie Mellon University). Gaussian is a federally registered
 trademark of Gaussian, Inc.
  
 This software contains proprietary and confidential information,
 including trade secrets, belonging to Gaussian, Inc.
  
 This software is provided under written license and may be
 used, copied, transmitted, or stored only in accord with that
 written license.
  
 The following legend is applicable only to US Government
 contracts under FAR:
  
                    RESTRICTED RIGHTS LEGEND
  
 Use, reproduction and disclosure by the US Government is
 subject to restrictions as set forth in subparagraphs (a)
 and (c) of the Commercial Computer Software - Restricted
 Rights clause in FAR 52.227-19.
  
 Gaussian, Inc.
 340 Quinnipiac St., Bldg. 40, Wallingford CT 06492
  
  
 ---------------------------------------------------------------
 Warning -- This program may not be used in any manner that
 competes with the business of Gaussian, Inc. or will provide
 assistance to any competitor of Gaussian, Inc.  The licensee
 of this program is prohibited from giving any competitor of
 Gaussian, Inc. access to this program.  By using this program,
 the user acknowledges that Gaussian, Inc. is engaged in the
 business of creating and licensing software in the field of
 computational chemistry and represents and warrants to the
 licensee that it is not a competitor of Gaussian, Inc. and that
 it will not use this program in any manner prohibited above.
 ---------------------------------------------------------------
  

 Cite this work as:
 Gaussian 09, Revision A.02,
 M. J. Frisch, G. W. Trucks, H. B. Schlegel, G. E. Scuseria, 
 M. A. Robb, J. R. Cheeseman, G. Scalmani, V. Barone, B. Mennucci, 
 G. A. Petersson, H. Nakatsuji, M. Caricato, X. Li, H. P. Hratchian, 
 A. F. Izmaylov, J. Bloino, G. Zheng, J. L. Sonnenberg, M. Hada, 
 M. Ehara, K. Toyota, R. Fukuda, J. Hasegawa, M. Ishida, T. Nakajima, 
 Y. Honda, O. Kitao, H. Nakai, T. Vreven, J. A. Montgomery, Jr., 
 J. E. Peralta, F. Ogliaro, M. Bearpark, J. J. Heyd, E. Brothers, 
 K. N. Kudin, V. N. Staroverov, R. Kobayashi, J. Normand, 
 K. Raghavachari, A. Rendell, J. C. Burant, S. S. Iyengar, J. Tomasi, 
 M. Cossi, N. Rega, J. M. Millam, M. Klene, J. E. Knox, J. B. Cross, 
 V. Bakken, C. Adamo, J. Jaramillo, R. Gomperts, R. E. Stratmann, 
 O. Yazyev, A. J. Austin, R. Cammi, C. Pomelli, J. W. Ochterski, 
 R. L. Martin, K. Morokuma, V. G. Zakrzewski, G. A. Voth, 
 P. Salvador, J. J. Dannenberg, S. Dapprich, A. D. Daniels, 
 O. Farkas, J. B. Foresman, J. V. Ortiz, J. Cioslowski, 
 and D. J. Fox, Gaussian, Inc., Wallingford CT, 2009.
 
 ******************************************
 Gaussian 09:  EM64L-G09RevA.02 11-Jun-2009
                 5-Dec-2019 
 ******************************************
 %chk=CHI8_-80
 %NoSave
 ---------------------------------
 #SP HF/6-31G* Geom=(ModRedundant)
 ---------------------------------
 1/18=120,38=1/1;
 2/12=2,17=6,18=5,40=1/2;
 3/5=1,6=6,7=1,11=9,16=1,25=1,30=1/1,2,3;
 4//1;
 5/5=2,38=5/2;
 6/7=2,8=2,9=2,10=2,28=1/1;
 99/5=1,9=1/99;
 ------------
 paramfit run
 ------------
 Symbolic Z-matrix:
 Charge =  0 Multiplicity = 1
 C-CT--0.3208          0.        0.        0. 
 N-N--0.5622           1.44819   0.        0. 
 C-C-0.8053            2.1232    0.47592   1.07237 
 O-O--0.6151           1.59018   0.69673   2.12445 
 C-CX-0.0839           3.65051   0.59414   0.92154 
 C-CU--0.3230          4.1989    1.54925   1.98685 
 C-CU--0.0657          4.30775  -0.80912   1.02398 
 C-CU--0.0109          4.13357  -1.62278   2.31907 
 C-CU-0.0816           2.83273  -2.4333    2.48497 
 C-CM--0.2354          2.57934  -3.42359   1.37258 
 C-CM--0.2653          2.83409  -4.72199   1.37554 
 C-CU-0.1214           3.44273  -5.53566   2.49234 
 C-CU--0.0354          2.42774  -6.37022   3.29413 
 C-CU--0.0984          1.69389  -7.40262   2.4278 
 C-CU-0.1300           0.50852  -6.91164   1.55689 
 C-CU--0.3561         -0.00484  -8.11509   0.74965 
 N-N--0.7186          -0.54754  -6.43269   2.43829 
 C-C-0.8537           -1.657    -5.8071    1.94759 
 C-CT--0.3868         -2.46227  -5.0408    2.97185 
 O-O--0.6323          -1.97551  -5.8574    0.7921 
 C-C-0.7903            0.99211  -5.72567   0.69183 
 O-O--0.6136           1.01605  -4.6138    1.14691 
 N-N--0.5650           1.47441  -6.00822  -0.53762 
 C-CT--0.3231          1.89658  -4.93922  -1.41921 
 N-N--0.7191           3.99741   1.07028  -0.42545 
 C-C-0.8539            3.58702   2.26716  -0.93409 
 C-CT--0.3903          4.32815   2.72766  -2.17214 
 O-O--0.6290           2.69713   2.90543  -0.4474 
 H-H1-0.1459          -0.40326   1.00615   0. 
 H-H1-0.1459          -0.36496  -0.516     0.87594 
 H-H1-0.1459          -0.34566  -0.52209  -0.88335 
 H-H-0.3572            1.90424   0.07091  -0.87936 
 H-HC-0.0997           3.93214   1.22176   2.98008 
 H-HC-0.0997           5.28092   1.59593   1.9075 
 H-HC-0.0997           3.79271   2.54059   1.8484 
 H-HC-0.0347           5.37458  -0.64325   0.89141 
 H-HC-0.0347           3.98464  -1.40332   0.17498 
 H-HC-0.0243           4.96157  -2.32476   2.35464 
 H-HC-0.0243           4.25012  -0.97572   3.18226 
 H-HC-0.0171           1.98572  -1.76405   2.56272 
 H-HC-0.0171           2.89564  -2.94811   3.43725 
 H-HA-0.1313           2.1355   -3.00918   0.48186 
 H-HA-0.1359           2.57948  -5.27639   0.48583 
 H-HC-0.0092           3.97152  -4.88991   3.18288 
 H-HC-0.0092           4.19182  -6.20202   2.06638 
 H-HC-0.0318           2.96562  -6.85691   4.10295 
 H-HC-0.0318           1.71458  -5.70792   3.767 
 H-HC-0.0435           1.30386  -8.19505   3.06299 
 H-HC-0.0435           2.41027  -7.86523   1.75911 
 H-HC-0.1066          -0.4138   -8.84552   1.43798 
 H-HC-0.1066           0.8015   -8.59664   0.20622 
 H-HC-0.1066          -0.78444  -7.82911   0.0596 
 H-H-0.3529           -0.24314  -6.10319   3.3257 
 H-HC-0.1047          -3.46772  -4.90709   2.60273 
 H-HC-0.1047          -2.00846  -4.06375   3.10813 
 H-HC-0.1047          -2.48658  -5.54453   3.93209 
 H-H-0.3615            1.21996  -6.87042  -0.95854 
 H-H1-0.1469           2.3582   -5.37575  -2.29515 
 H-H1-0.1469           2.61875  -4.31415  -0.91485 
 H-H1-0.1469           1.06173  -4.31823  -1.72768 
 H-H-0.3570            4.82812   0.68479  -0.81644 
 H-HC-0.1060           3.71017   3.4346   -2.70629 
 H-HC-0.1060           4.58817   1.90253  -2.82568 
 H-HC-0.1060           5.24477   3.2262   -1.87372 
 
 The following ModRedundant input section has been read:
 D    *   13   14    * F                                                       
 Stoichiometry    C20H36N4O4
 Framework group  C1[X(C20H36N4O4)]
 Deg. of freedom   186
 Full point group                 C1      NOp   1
 Largest Abelian subgroup         C1      NOp   1
 Largest concise Abelian subgroup C1      NOp   1
                         Standard orientation:                         
 ---------------------------------------------------------------------
 Center     Atomic      Atomic             Coordinates (Angstroms)
 Number     Number       Type             X           Y           Z
 ---------------------------------------------------------------------
      1          6    20001001       -2.127758    2.812142   -0.061287
      2          7    20001014       -2.646271    1.482874    0.186574
      3          6    20001002       -3.128249    0.744052   -0.840046
      4          8    20001024       -2.947786    1.040175   -1.988737
      5          6    90000001       -3.810849   -0.583777   -0.465465
      6          6    90000002       -4.687584   -1.056363   -1.629871
      7          6    90000002       -2.742486   -1.646688   -0.090732
      8          6    90000002       -1.698895   -2.060397   -1.144012
      9          6    90000002       -0.460676   -1.158385   -1.316715
     10          6    20001004        0.334067   -0.955770   -0.048012
     11          6    20001004        1.432381   -1.592071    0.325598
     12          6    90000002        2.163191   -2.680019   -0.424093
     13          6    90000002        3.437018   -2.205843   -1.146650
     14          6    90000002        4.487212   -1.636396   -0.183459
     15          6    90000002        4.303232   -0.180025    0.316320
     16          6    90000002        5.441888    0.119428    1.304875
     17          7    20001014        4.403455    0.718473   -0.825690
     18          6    20001002        4.138358    2.052336   -0.709119
     19          6    20001001        3.911698    2.774042   -2.017771
     20          8    20001024        4.087785    2.616277    0.348500
     21          6    20001002        2.886329   -0.041983    0.918031
     22          8    20001024        1.942558    0.166973    0.204194
     23          7    20001014        2.748230   -0.266571    2.242594
     24          6    20001001        1.457420   -0.104237    2.879509
     25          7    20001014       -4.616657   -0.420143    0.753275
     26          6    20001002       -5.658483    0.453274    0.860107
     27          6    20001001       -6.571260    0.223150    2.046699
     28          8    20001024       -5.835606    1.346622    0.081200
     29          1    20001035       -2.904733    3.493595   -0.388212
     30          1    20001035       -1.364861    2.769802   -0.824778
     31          1    20001035       -1.686965    3.187397    0.853720
     32          1    20001029       -3.034826    1.304733    1.082998
     33          1    20001034       -4.111086   -1.159655   -2.536465
     34          1    20001034       -5.132203   -2.015371   -1.381163
     35          1    20001034       -5.475199   -0.342392   -1.821794
     36          1    20001034       -3.300519   -2.541652    0.175462
     37          1    20001034       -2.237460   -1.322981    0.813946
     38          1    20001034       -1.346048   -3.046439   -0.856197
     39          1    20001034       -2.175776   -2.181686   -2.111093
     40          1    20001034       -0.756090   -0.193184   -1.707205
     41          1    20001034        0.161855   -1.612063   -2.079909
     42          1    20001033       -0.048905   -0.198806    0.617158
     43          1    20001033        1.869004   -1.308802    1.270522
     44          1    20001034        1.508430   -3.137190   -1.156042
     45          1    20001034        2.427523   -3.467914    0.280139
     46          1    20001034        3.837580   -3.051140   -1.699278
     47          1    20001034        3.172088   -1.463839   -1.888320
     48          1    20001034        5.468323   -1.681419   -0.651356
     49          1    20001034        4.532431   -2.270906    0.693869
     50          1    20001034        6.382696    0.097753    0.767297
     51          1    20001034        5.495073   -0.634640    2.083292
     52          1    20001034        5.333328    1.094981    1.754600
     53          1    20001029        4.154533    0.320497   -1.702254
     54          1    20001034        4.081957    3.830030   -1.872979
     55          1    20001034        2.879354    2.625935   -2.320187
     56          1    20001034        4.556761    2.401871   -2.806291
     57          1    20001029        3.552129   -0.195187    2.820487
     58          1    20001035        1.532184   -0.445340    3.903706
     59          1    20001035        0.718417   -0.699044    2.363074
     60          1    20001035        1.131428    0.930852    2.870897
     61          1    20001029       -4.632368   -1.204748    1.366216
     62          1    20001034       -7.094758    1.141851    2.267858
     63          1    20001034       -6.027923   -0.108413    2.924424
     64          1    20001034       -7.301569   -0.538114    1.791889
 ---------------------------------------------------------------------
 Rotational constants (GHZ):      0.3276958      0.0821195      0.0783107
 Standard basis: 6-31G(d) (6D, 7F)
 There are   492 symmetry adapted basis functions of A   symmetry.
 Integral buffers will be    131072 words long.
 Raffenetti 1 integral format.
 Two-electron integral symmetry is turned on.
   492 basis functions,   928 primitive gaussians,   492 cartesian basis functions
   108 alpha electrons      108 beta electrons
       nuclear repulsion energy      2933.0030620941 Hartrees.
 NAtoms=   64 NActive=   64 NUniq=   64 SFac= 7.50D-01 NAtFMM=   80 NAOKFM=F Big=T
 One-electron integrals computed using PRISM.
 NBasis=   492 RedAO= T  NBF=   492
 NBsUse=   492 1.00D-06 NBFU=   492
 Harris functional with IExCor=  205 diagonalized for initial guess.
 ExpMin= 1.61D-01 ExpMax= 5.48D+03 ExpMxC= 8.25D+02 IAcc=1 IRadAn=         1 AccDes= 0.00D+00
 HarFok:  IExCor=  205 AccDes= 0.00D+00 IRadAn=         1 IDoV= 1
 ScaDFX=  1.000000  1.000000  1.000000  1.000000
 FoFCou: FMM=F IPFlag=           0 FMFlag=      100000 FMFlg1=           1
         NFxFlg=           0 DoJE=T BraDBF=F KetDBF=T FulRan=T
         Omega=  0.000000  0.000000  1.000000  0.000000  0.000000 ICntrl=     500 IOpCl=  0
         NMat0=    1 NMatS0=    1 NMatT0=    0 NMatD0=    1 NMtDS0=    0 NMtDT0=    0
         I1Cent=           4 NGrid=           0.
 Petite list used in FoFCou.
 Initial guess orbital symmetries:
       Occupied  (A) (A) (A) (A) (A) (A) (A) (A) (A) (A) (A) (A)
                 (A) (A) (A) (A) (A) (A) (A) (A) (A) (A) (A) (A)
                 (A) (A) (A) (A) (A) (A) (A) (A) (A) (A) (A) (A)
                 (A) (A) (A) (A) (A) (A) (A) (A) (A) (A) (A) (A)
                 (A) (A) (A) (A) (A) (A) (A) (A) (A) (A) (A) (A)
                 (A) (A) (A) (A) (A) (A) (A) (A) (A) (A) (A) (A)
                 (A) (A) (A) (A) (A) (A) (A) (A) (A) (A) (A) (A)
                 (A) (A) (A) (A) (A) (A) (A) (A) (A) (A) (A) (A)
                 (A) (A) (A) (A) (A) (A) (A) (A) (A) (A) (A) (A)
       Virtual   (A) (A) (A) (A) (A) (A) (A) (A) (A) (A) (A) (A)
                 (A) (A) (A) (A) (A) (A) (A) (A) (A) (A) (A) (A)
                 (A) (A) (A) (A) (A) (A) (A) (A) (A) (A) (A) (A)
                 (A) (A) (A) (A) (A) (A) (A) (A) (A) (A) (A) (A)
                 (A) (A) (A) (A) (A) (A) (A) (A) (A) (A) (A) (A)
                 (A) (A) (A) (A) (A) (A) (A) (A) (A) (A) (A) (A)
                 (A) (A) (A) (A) (A) (A) (A) (A) (A) (A) (A) (A)
                 (A) (A) (A) (A) (A) (A) (A) (A) (A) (A) (A) (A)
                 (A) (A) (A) (A) (A) (A) (A) (A) (A) (A) (A) (A)
                 (A) (A) (A) (A) (A) (A) (A) (A) (A) (A) (A) (A)
                 (A) (A) (A) (A) (A) (A) (A) (A) (A) (A) (A) (A)
                 (A) (A) (A) (A) (A) (A) (A) (A) (A) (A) (A) (A)
                 (A) (A) (A) (A) (A) (A) (A) (A) (A) (A) (A) (A)
                 (A) (A) (A) (A) (A) (A) (A) (A) (A) (A) (A) (A)
                 (A) (A) (A) (A) (A) (A) (A) (A) (A) (A) (A) (A)
                 (A) (A) (A) (A) (A) (A) (A) (A) (A) (A) (A) (A)
                 (A) (A) (A) (A) (A) (A) (A) (A) (A) (A) (A) (A)
                 (A) (A) (A) (A) (A) (A) (A) (A) (A) (A) (A) (A)
                 (A) (A) (A) (A) (A) (A) (A) (A) (A) (A) (A) (A)
                 (A) (A) (A) (A) (A) (A) (A) (A) (A) (A) (A) (A)
                 (A) (A) (A) (A) (A) (A) (A) (A) (A) (A) (A) (A)
                 (A) (A) (A) (A) (A) (A) (A) (A) (A) (A) (A) (A)
                 (A) (A) (A) (A) (A) (A) (A) (A) (A) (A) (A) (A)
                 (A) (A) (A) (A) (A) (A) (A) (A) (A) (A) (A) (A)
                 (A) (A) (A) (A) (A) (A) (A) (A) (A) (A) (A) (A)
                 (A) (A) (A) (A) (A) (A) (A) (A) (A) (A) (A) (A)
                 (A) (A) (A) (A) (A) (A) (A) (A) (A) (A) (A) (A)
                 (A) (A) (A) (A) (A) (A) (A) (A) (A) (A) (A) (A)
                 (A) (A) (A) (A) (A) (A) (A) (A) (A) (A) (A) (A)
                 (A) (A) (A) (A) (A) (A) (A) (A) (A) (A) (A) (A)
                 (A) (A) (A) (A) (A) (A) (A) (A) (A) (A) (A) (A)
                 (A) (A) (A) (A) (A) (A) (A) (A) (A) (A) (A) (A)
 The electronic state of the initial guess is 1-A.
 Requested convergence on RMS density matrix=1.00D-08 within 128 cycles.
 Requested convergence on MAX density matrix=1.00D-06.
 Requested convergence on             energy=1.00D-06.
 No special actions if energy rises.
 Integral accuracy reduced to 1.0D-05 until final iterations.
 Initial convergence to 1.0D-05 achieved.  Increase integral accuracy.
 SCF Done:  E(RHF) =  -1295.39005659     A.U. after   16 cycles
             Convg  =    0.7712D-08             -V/T =  2.0003

 **********************************************************************

            Population analysis using the SCF density.

 **********************************************************************

 Orbital symmetries:
       Occupied  (A) (A) (A) (A) (A) (A) (A) (A) (A) (A) (A) (A)
                 (A) (A) (A) (A) (A) (A) (A) (A) (A) (A) (A) (A)
                 (A) (A) (A) (A) (A) (A) (A) (A) (A) (A) (A) (A)
                 (A) (A) (A) (A) (A) (A) (A) (A) (A) (A) (A) (A)
                 (A) (A) (A) (A) (A) (A) (A) (A) (A) (A) (A) (A)
                 (A) (A) (A) (A) (A) (A) (A) (A) (A) (A) (A) (A)
                 (A) (A) (A) (A) (A) (A) (A) (A) (A) (A) (A) (A)
                 (A) (A) (A) (A) (A) (A) (A) (A) (A) (A) (A) (A)
                 (A) (A) (A) (A) (A) (A) (A) (A) (A) (A) (A) (A)
       Virtual   (A) (A) (A) (A) (A) (A) (A) (A) (A) (A) (A) (A)
                 (A) (A) (A) (A) (A) (A) (A) (A) (A) (A) (A) (A)
                 (A) (A) (A) (A) (A) (A) (A) (A) (A) (A) (A) (A)
                 (A) (A) (A) (A) (A) (A) (A) (A) (A) (A) (A) (A)
                 (A) (A) (A) (A) (A) (A) (A) (A) (A) (A) (A) (A)
                 (A) (A) (A) (A) (A) (A) (A) (A) (A) (A) (A) (A)
                 (A) (A) (A) (A) (A) (A) (A) (A) (A) (A) (A) (A)
                 (A) (A) (A) (A) (A) (A) (A) (A) (A) (A) (A) (A)
                 (A) (A) (A) (A) (A) (A) (A) (A) (A) (A) (A) (A)
                 (A) (A) (A) (A) (A) (A) (A) (A) (A) (A) (A) (A)
                 (A) (A) (A) (A) (A) (A) (A) (A) (A) (A) (A) (A)
                 (A) (A) (A) (A) (A) (A) (A) (A) (A) (A) (A) (A)
                 (A) (A) (A) (A) (A) (A) (A) (A) (A) (A) (A) (A)
                 (A) (A) (A) (A) (A) (A) (A) (A) (A) (A) (A) (A)
                 (A) (A) (A) (A) (A) (A) (A) (A) (A) (A) (A) (A)
                 (A) (A) (A) (A) (A) (A) (A) (A) (A) (A) (A) (A)
                 (A) (A) (A) (A) (A) (A) (A) (A) (A) (A) (A) (A)
                 (A) (A) (A) (A) (A) (A) (A) (A) (A) (A) (A) (A)
                 (A) (A) (A) (A) (A) (A) (A) (A) (A) (A) (A) (A)
                 (A) (A) (A) (A) (A) (A) (A) (A) (A) (A) (A) (A)
                 (A) (A) (A) (A) (A) (A) (A) (A) (A) (A) (A) (A)
                 (A) (A) (A) (A) (A) (A) (A) (A) (A) (A) (A) (A)
                 (A) (A) (A) (A) (A) (A) (A) (A) (A) (A) (A) (A)
                 (A) (A) (A) (A) (A) (A) (A) (A) (A) (A) (A) (A)
                 (A) (A) (A) (A) (A) (A) (A) (A) (A) (A) (A) (A)
                 (A) (A) (A) (A) (A) (A) (A) (A) (A) (A) (A) (A)
                 (A) (A) (A) (A) (A) (A) (A) (A) (A) (A) (A) (A)
                 (A) (A) (A) (A) (A) (A) (A) (A) (A) (A) (A) (A)
                 (A) (A) (A) (A) (A) (A) (A) (A) (A) (A) (A) (A)
                 (A) (A) (A) (A) (A) (A) (A) (A) (A) (A) (A) (A)
                 (A) (A) (A) (A) (A) (A) (A) (A) (A) (A) (A) (A)
                 (A) (A) (A) (A) (A) (A) (A) (A) (A) (A) (A) (A)
 The electronic state is 1-A.
 Alpha  occ. eigenvalues --  -20.52908 -20.52859 -20.52263 -20.50685 -15.59226
 Alpha  occ. eigenvalues --  -15.58694 -15.57880 -15.56364 -11.35185 -11.34484
 Alpha  occ. eigenvalues --  -11.33745 -11.32713 -11.29101 -11.27865 -11.25936
 Alpha  occ. eigenvalues --  -11.23795 -11.23777 -11.23742 -11.22816 -11.22633
 Alpha  occ. eigenvalues --  -11.22481 -11.22297 -11.21607 -11.20649 -11.19879
 Alpha  occ. eigenvalues --  -11.19149 -11.18812 -11.16528  -1.43619  -1.39773
 Alpha  occ. eigenvalues --   -1.38956  -1.37560  -1.25131  -1.24464  -1.23955
 Alpha  occ. eigenvalues --   -1.20940  -1.09918  -1.08402  -1.06823  -1.03158
 Alpha  occ. eigenvalues --   -1.00416  -0.99102  -0.98197  -0.96546  -0.94397
 Alpha  occ. eigenvalues --   -0.93791  -0.91506  -0.87821  -0.85730  -0.82416
 Alpha  occ. eigenvalues --   -0.81556  -0.80401  -0.78792  -0.77200  -0.76059
 Alpha  occ. eigenvalues --   -0.72911  -0.72019  -0.70198  -0.68347  -0.68196
 Alpha  occ. eigenvalues --   -0.67630  -0.65424  -0.64679  -0.63484  -0.62921
 Alpha  occ. eigenvalues --   -0.62575  -0.62035  -0.61640  -0.61257  -0.60233
 Alpha  occ. eigenvalues --   -0.59823  -0.59693  -0.59162  -0.58635  -0.58134
 Alpha  occ. eigenvalues --   -0.57692  -0.57003  -0.56912  -0.56341  -0.56229
 Alpha  occ. eigenvalues --   -0.55847  -0.55157  -0.54874  -0.54214  -0.53403
 Alpha  occ. eigenvalues --   -0.53221  -0.52201  -0.51563  -0.51376  -0.50426
 Alpha  occ. eigenvalues --   -0.50074  -0.49973  -0.49184  -0.47698  -0.47052
 Alpha  occ. eigenvalues --   -0.46834  -0.46712  -0.45287  -0.43501  -0.42114
 Alpha  occ. eigenvalues --   -0.41724  -0.41334  -0.40866  -0.39974  -0.39128
 Alpha  occ. eigenvalues --   -0.38251  -0.37133  -0.22728
 Alpha virt. eigenvalues --    0.18269   0.19556   0.20006   0.20723   0.20984
 Alpha virt. eigenvalues --    0.21385   0.22096   0.22929   0.24093   0.24893
 Alpha virt. eigenvalues --    0.25765   0.26353   0.26690   0.27001   0.27832
 Alpha virt. eigenvalues --    0.28615   0.29104   0.29794   0.29981   0.30143
 Alpha virt. eigenvalues --    0.30511   0.30935   0.31104   0.31576   0.32185
 Alpha virt. eigenvalues --    0.32938   0.33042   0.33224   0.33696   0.33931
 Alpha virt. eigenvalues --    0.34239   0.34908   0.35379   0.35899   0.36218
 Alpha virt. eigenvalues --    0.36863   0.37325   0.37595   0.38173   0.38454
 Alpha virt. eigenvalues --    0.39284   0.39689   0.40055   0.40768   0.41372
 Alpha virt. eigenvalues --    0.42085   0.42398   0.43334   0.43898   0.44596
 Alpha virt. eigenvalues --    0.45407   0.46704   0.47081   0.47643   0.48566
 Alpha virt. eigenvalues --    0.48821   0.49553   0.50347   0.53031   0.53928
 Alpha virt. eigenvalues --    0.55898   0.56617   0.57577   0.59418   0.60094
 Alpha virt. eigenvalues --    0.62375   0.63723   0.64548   0.68817   0.71177
 Alpha virt. eigenvalues --    0.71675   0.72208   0.72744   0.73438   0.73902
 Alpha virt. eigenvalues --    0.74501   0.75200   0.76044   0.76321   0.77111
 Alpha virt. eigenvalues --    0.77573   0.78407   0.78874   0.79320   0.80704
 Alpha virt. eigenvalues --    0.81609   0.82001   0.82689   0.83282   0.83692
 Alpha virt. eigenvalues --    0.84043   0.84708   0.85670   0.87201   0.88045
 Alpha virt. eigenvalues --    0.88979   0.90004   0.90747   0.91445   0.92000
 Alpha virt. eigenvalues --    0.92565   0.93564   0.94130   0.95184   0.95553
 Alpha virt. eigenvalues --    0.96886   0.97089   0.97959   0.98558   0.99048
 Alpha virt. eigenvalues --    0.99729   1.00021   1.01449   1.01911   1.02469
 Alpha virt. eigenvalues --    1.02760   1.03764   1.04162   1.05135   1.05258
 Alpha virt. eigenvalues --    1.05575   1.05931   1.07946   1.08336   1.09443
 Alpha virt. eigenvalues --    1.10474   1.11577   1.12129   1.12458   1.12664
 Alpha virt. eigenvalues --    1.13020   1.13528   1.14467   1.14648   1.15204
 Alpha virt. eigenvalues --    1.15469   1.15971   1.16504   1.16959   1.17136
 Alpha virt. eigenvalues --    1.17546   1.18032   1.18739   1.19046   1.19128
 Alpha virt. eigenvalues --    1.19405   1.19734   1.20261   1.20543   1.21101
 Alpha virt. eigenvalues --    1.21420   1.21822   1.22002   1.22044   1.22726
 Alpha virt. eigenvalues --    1.22893   1.23318   1.23636   1.24150   1.24360
 Alpha virt. eigenvalues --    1.25313   1.26089   1.27020   1.27700   1.27993
 Alpha virt. eigenvalues --    1.28742   1.29233   1.30152   1.30788   1.31973
 Alpha virt. eigenvalues --    1.32133   1.33406   1.33597   1.34126   1.35112
 Alpha virt. eigenvalues --    1.35749   1.36520   1.38489   1.39285   1.40707
 Alpha virt. eigenvalues --    1.42077   1.42982   1.43454   1.45009   1.46880
 Alpha virt. eigenvalues --    1.47897   1.49305   1.49620   1.50950   1.52778
 Alpha virt. eigenvalues --    1.54956   1.55469   1.56456   1.56817   1.58088
 Alpha virt. eigenvalues --    1.59241   1.61206   1.62144   1.63216   1.65025
 Alpha virt. eigenvalues --    1.66114   1.67256   1.68349   1.69197   1.70182
 Alpha virt. eigenvalues --    1.71059   1.73126   1.74438   1.74829   1.76328
 Alpha virt. eigenvalues --    1.78264   1.79222   1.80351   1.82076   1.82392
 Alpha virt. eigenvalues --    1.84645   1.85871   1.88094   1.89119   1.90805
 Alpha virt. eigenvalues --    1.91283   1.92824   1.95297   1.97428   1.97709
 Alpha virt. eigenvalues --    1.99729   2.00610   2.01436   2.03082   2.05121
 Alpha virt. eigenvalues --    2.06663   2.07171   2.08731   2.10256   2.11033
 Alpha virt. eigenvalues --    2.11820   2.12310   2.12932   2.13293   2.14049
 Alpha virt. eigenvalues --    2.14843   2.15008   2.16025   2.17306   2.19071
 Alpha virt. eigenvalues --    2.19097   2.19874   2.20726   2.21037   2.22340
 Alpha virt. eigenvalues --    2.23120   2.23952   2.24071   2.24449   2.25759
 Alpha virt. eigenvalues --    2.26602   2.27459   2.28481   2.29472   2.30155
 Alpha virt. eigenvalues --    2.30739   2.32381   2.32717   2.33357   2.34675
 Alpha virt. eigenvalues --    2.35423   2.35945   2.37051   2.37157   2.38231
 Alpha virt. eigenvalues --    2.39425   2.40374   2.41473   2.42032   2.43906
 Alpha virt. eigenvalues --    2.44299   2.45928   2.46363   2.46808   2.46899
 Alpha virt. eigenvalues --    2.49957   2.51661   2.52134   2.52530   2.53657
 Alpha virt. eigenvalues --    2.54473   2.55780   2.56597   2.57630   2.57936
 Alpha virt. eigenvalues --    2.58084   2.59288   2.60718   2.62944   2.63147
 Alpha virt. eigenvalues --    2.63701   2.65041   2.65984   2.66925   2.67846
 Alpha virt. eigenvalues --    2.70284   2.71937   2.72324   2.73383   2.73528
 Alpha virt. eigenvalues --    2.74070   2.75890   2.76575   2.77250   2.78277
 Alpha virt. eigenvalues --    2.79100   2.79913   2.80948   2.82723   2.84000
 Alpha virt. eigenvalues --    2.84262   2.85235   2.85566   2.87721   2.89092
 Alpha virt. eigenvalues --    2.89492   2.92954   2.93847   2.96635   2.97469
 Alpha virt. eigenvalues --    2.99051   2.99254   3.00322   3.01467   3.04047
 Alpha virt. eigenvalues --    3.06221   3.06802   3.07748   3.09049   3.10791
 Alpha virt. eigenvalues --    3.12269   3.13172   3.13613   3.14783   3.17768
 Alpha virt. eigenvalues --    3.18971   3.20949   3.29689   3.30332   3.31283
 Alpha virt. eigenvalues --    3.35147   3.35675   3.39646   3.40526   3.44080
 Alpha virt. eigenvalues --    3.44429   3.49625   3.54321   3.55669   3.58993
 Alpha virt. eigenvalues --    3.61172   4.42093   4.43324   4.45967   4.47813
 Alpha virt. eigenvalues --    4.50575   4.57833   4.58048   4.59624   4.64325
 Alpha virt. eigenvalues --    4.67650   4.69156   4.70129   4.71438   4.72662
 Alpha virt. eigenvalues --    4.77001   4.79490   4.83112   4.86522   4.88165
 Alpha virt. eigenvalues --    4.91332   4.97110   5.01803   5.02734   5.05455
 Alpha virt. eigenvalues --    5.11552   5.14896   5.23390   5.31434
          Condensed to atoms (all electrons):
 Mulliken atomic charges:
              1
     1  C   -0.276879
     2  N   -0.779335
     3  C    0.826078
     4  O   -0.631569
     5  C    0.101277
     6  C   -0.471476
     7  C   -0.328942
     8  C   -0.300810
     9  C   -0.354508
    10  C   -0.139945
    11  C   -0.203563
    12  C   -0.342074
    13  C   -0.324872
    14  C   -0.335439
    15  C    0.110299
    16  C   -0.509947
    17  N   -0.784692
    18  C    0.765622
    19  C   -0.595994
    20  O   -0.612485
    21  C    0.737612
    22  O   -0.556496
    23  N   -0.813378
    24  C   -0.306113
    25  N   -0.842615
    26  C    0.745056
    27  C   -0.588196
    28  O   -0.592965
    29  H    0.181276
    30  H    0.200640
    31  H    0.161671
    32  H    0.388328
    33  H    0.199118
    34  H    0.141232
    35  H    0.208431
    36  H    0.153443
    37  H    0.179715
    38  H    0.155619
    39  H    0.163168
    40  H    0.199161
    41  H    0.148500
    42  H    0.171913
    43  H    0.209289
    44  H    0.177617
    45  H    0.157927
    46  H    0.171804
    47  H    0.163497
    48  H    0.183311
    49  H    0.176640
    50  H    0.187746
    51  H    0.146939
    52  H    0.228143
    53  H    0.389356
    54  H    0.212075
    55  H    0.210799
    56  H    0.178110
    57  H    0.405932
    58  H    0.176149
    59  H    0.215884
    60  H    0.189369
    61  H    0.381126
    62  H    0.216723
    63  H    0.175944
    64  H    0.199751
 Sum of Mulliken atomic charges =   0.00000
 Mulliken charges with hydrogens summed into heavy atoms:
              1
     1  C    0.266708
     2  N   -0.391007
     3  C    0.826078
     4  O   -0.631569
     5  C    0.101277
     6  C    0.077305
     7  C    0.004216
     8  C    0.017977
     9  C   -0.006847
    10  C    0.031968
    11  C    0.005726
    12  C   -0.006529
    13  C    0.010430
    14  C    0.024512
    15  C    0.110299
    16  C    0.052880
    17  N   -0.395336
    18  C    0.765622
    19  C    0.004990
    20  O   -0.612485
    21  C    0.737612
    22  O   -0.556496
    23  N   -0.407447
    24  C    0.275290
    25  N   -0.461488
    26  C    0.745056
    27  C    0.004222
    28  O   -0.592965
 Sum of Mulliken charges with hydrogens summed into heavy atoms =   0.00000
 Electronic spatial extent (au):  <R**2>=          14434.4637
 Charge=              0.0000 electrons
 Dipole moment (field-independent basis, Debye):
    X=              2.8250    Y=             -4.9115    Z=              4.9874  Tot=              7.5483
 Quadrupole moment (field-independent basis, Debye-Ang):
   XX=           -162.6581   YY=           -177.3656   ZZ=           -159.8795
   XY=              5.9610   XZ=            -25.2392   YZ=             -0.7339
 Traceless Quadrupole moment (field-independent basis, Debye-Ang):
   XX=              3.9763   YY=            -10.7312   ZZ=              6.7549
   XY=              5.9610   XZ=            -25.2392   YZ=             -0.7339
 Octapole moment (field-independent basis, Debye-Ang**2):
  XXX=             31.4186  YYY=             17.8878  ZZZ=             49.6587  XYY=            -16.3210
  XXY=           -133.9922  XXZ=             91.6254  XZZ=             35.0754  YZZ=              5.2095
  YYZ=            -13.5835  XYZ=            -37.8374
 Hexadecapole moment (field-independent basis, Debye-Ang**3):
 XXXX=         -14341.8536 YYYY=          -2703.4675 ZZZZ=          -1814.8904 XXXY=            360.0444
 XXXZ=           -588.7870 YYYX=            -56.3225 YYYZ=            -51.4719 ZZZX=            -24.6378
 ZZZY=              5.1821 XXYY=          -3038.1380 XXZZ=          -2505.0743 YYZZ=           -757.0799
 XXYZ=            -48.8762 YYXZ=           -110.7857 ZZXY=             39.8084
 N-N= 2.933003062094D+03 E-N=-8.899608550504D+03  KE= 1.295016844519D+03
 1\1\GINC-MOSURA\SP\RHF\6-31G(d)\C20H36N4O4\MARIE\05-Dec-2019\0\\#SP HF
 /6-31G* Geom=(ModRedundant)\\paramfit run\\0,1\C,0,0.,0.,0.\N,0,1.4481
 87,0.,0.\C,0,2.1232,0.47592,1.072365\O,0,1.590179,0.696732,2.124447\C,
 0,3.650505,0.594143,0.921539\C,0,4.198902,1.549248,1.986845\C,0,4.3077
 51,-0.809116,1.023981\C,0,4.133566,-1.622781,2.319066\C,0,2.832729,-2.
 433298,2.484965\C,0,2.579342,-3.423586,1.372579\C,0,2.834093,-4.721989
 ,1.375535\C,0,3.442731,-5.535663,2.492337\C,0,2.42774,-6.370218,3.2941
 33\C,0,1.693892,-7.402618,2.427801\C,0,0.508523,-6.911641,1.55689\C,0,
 -0.004835,-8.115087,0.749653\N,0,-0.547537,-6.432685,2.438292\C,0,-1.6
 57002,-5.807103,1.947588\C,0,-2.46227,-5.040795,2.971854\O,0,-1.975513
 ,-5.857405,0.792095\C,0,0.992112,-5.725665,0.69183\O,0,1.01605,-4.6137
 95,1.146913\N,0,1.474406,-6.008219,-0.537615\C,0,1.896577,-4.939219,-1
 .419212\N,0,3.997412,1.070275,-0.425452\C,0,3.587019,2.267163,-0.93408
 6\C,0,4.328148,2.727659,-2.172145\O,0,2.697134,2.905425,-0.447397\H,0,
 -0.403259,1.006147,0.\H,0,-0.36496,-0.516002,0.875939\H,0,-0.345658,-0
 .522086,-0.883346\H,0,1.904244,0.070913,-0.879357\H,0,3.932135,1.22176
 ,2.980082\H,0,5.28092,1.595925,1.9075\H,0,3.792711,2.540594,1.848395\H
 ,0,5.374584,-0.64325,0.891407\H,0,3.984642,-1.403324,0.174983\H,0,4.96
 1565,-2.324757,2.354635\H,0,4.250121,-0.975721,3.182259\H,0,1.985724,-
 1.764045,2.562723\H,0,2.895638,-2.94811,3.437249\H,0,2.135502,-3.00918
 1,0.481856\H,0,2.579482,-5.276386,0.485828\H,0,3.971519,-4.889909,3.18
 2881\H,0,4.191817,-6.202016,2.066382\H,0,2.965623,-6.85691,4.102952\H,
 0,1.714584,-5.707921,3.766998\H,0,1.303856,-8.195046,3.062989\H,0,2.41
 0265,-7.865234,1.75911\H,0,-0.413797,-8.845523,1.43798\H,0,0.801498,-8
 .596636,0.206221\H,0,-0.784439,-7.829112,0.059598\H,0,-0.243142,-6.103
 186,3.325696\H,0,-3.467723,-4.907092,2.602734\H,0,-2.00846,-4.063753,3
 .108129\H,0,-2.486577,-5.544529,3.932085\H,0,1.219961,-6.870419,-0.958
 541\H,0,2.358195,-5.375755,-2.295149\H,0,2.618747,-4.31415,-0.914845\H
 ,0,1.06173,-4.318228,-1.727683\H,0,4.82812,0.684785,-0.816437\H,0,3.71
 0173,3.434604,-2.706288\H,0,4.588171,1.902533,-2.825678\H,0,5.244771,3
 .226201,-1.873716\\Version=EM64L-G09RevA.02\State=1-A\HF=-1295.3900566
 \RMSD=7.712e-09\Dipole=1.7115697,-2.1186147,-1.1838059\Quadrupole=-0.8
 115608,-9.1888621,10.0004229,7.3104704,-10.6082094,-12.7409496\PG=C01 
 [X(C20H36N4O4)]\\@


 THE TRULY SUCCESSFUL PERFORMANCE OF RESEARCHES IN
 INORGANIC CHEMISTRY IS POSSIBLE ONLY TO ONE WHO IS NOT
 ONLY A THEORETICAL CHEMIST, BUT ALSO AN ACCOMPLISHED
 ANALYST AND, MOREOVER, NOT MERELY A PRACTICALLY TRAINED,
 MECHANICAL WORKER, BUT A THINKING CREATIVE ARTIST.
   --  CLEMENS WINKLER, BER. 33, 1697(1900)
 Job cpu time:  0 days  0 hours  8 minutes  6.7 seconds.
 File lengths (MBytes):  RWF=    132 Int=      0 D2E=      0 Chk=     10 Scr=      1
 Normal termination of Gaussian 09 at Thu Dec  5 19:26:33 2019.
