 Entering Gaussian System, Link 0=g09
 Input=CHI8_-160.gau
 Output=CHI8_-160.log
 Initial command:
 /home/marie/Utilities//g09/l1.exe /tmp/g09/Gau-11147.inp -scrdir=/tmp/g09/
 Entering Link 1 = /home/marie/Utilities//g09/l1.exe PID=     11149.
  
 Copyright (c) 1988,1990,1992,1993,1995,1998,2003,2009, Gaussian, Inc.
                  All Rights Reserved.
  
 This is part of the Gaussian(R) 09 program.  It is based on
 the Gaussian(R) 03 system (copyright 2003, Gaussian, Inc.),
 the Gaussian(R) 98 system (copyright 1998, Gaussian, Inc.),
 the Gaussian(R) 94 system (copyright 1995, Gaussian, Inc.),
 the Gaussian 92(TM) system (copyright 1992, Gaussian, Inc.),
 the Gaussian 90(TM) system (copyright 1990, Gaussian, Inc.),
 the Gaussian 88(TM) system (copyright 1988, Gaussian, Inc.),
 the Gaussian 86(TM) system (copyright 1986, Carnegie Mellon
 University), and the Gaussian 82(TM) system (copyright 1983,
 Carnegie Mellon University). Gaussian is a federally registered
 trademark of Gaussian, Inc.
  
 This software contains proprietary and confidential information,
 including trade secrets, belonging to Gaussian, Inc.
  
 This software is provided under written license and may be
 used, copied, transmitted, or stored only in accord with that
 written license.
  
 The following legend is applicable only to US Government
 contracts under FAR:
  
                    RESTRICTED RIGHTS LEGEND
  
 Use, reproduction and disclosure by the US Government is
 subject to restrictions as set forth in subparagraphs (a)
 and (c) of the Commercial Computer Software - Restricted
 Rights clause in FAR 52.227-19.
  
 Gaussian, Inc.
 340 Quinnipiac St., Bldg. 40, Wallingford CT 06492
  
  
 ---------------------------------------------------------------
 Warning -- This program may not be used in any manner that
 competes with the business of Gaussian, Inc. or will provide
 assistance to any competitor of Gaussian, Inc.  The licensee
 of this program is prohibited from giving any competitor of
 Gaussian, Inc. access to this program.  By using this program,
 the user acknowledges that Gaussian, Inc. is engaged in the
 business of creating and licensing software in the field of
 computational chemistry and represents and warrants to the
 licensee that it is not a competitor of Gaussian, Inc. and that
 it will not use this program in any manner prohibited above.
 ---------------------------------------------------------------
  

 Cite this work as:
 Gaussian 09, Revision A.02,
 M. J. Frisch, G. W. Trucks, H. B. Schlegel, G. E. Scuseria, 
 M. A. Robb, J. R. Cheeseman, G. Scalmani, V. Barone, B. Mennucci, 
 G. A. Petersson, H. Nakatsuji, M. Caricato, X. Li, H. P. Hratchian, 
 A. F. Izmaylov, J. Bloino, G. Zheng, J. L. Sonnenberg, M. Hada, 
 M. Ehara, K. Toyota, R. Fukuda, J. Hasegawa, M. Ishida, T. Nakajima, 
 Y. Honda, O. Kitao, H. Nakai, T. Vreven, J. A. Montgomery, Jr., 
 J. E. Peralta, F. Ogliaro, M. Bearpark, J. J. Heyd, E. Brothers, 
 K. N. Kudin, V. N. Staroverov, R. Kobayashi, J. Normand, 
 K. Raghavachari, A. Rendell, J. C. Burant, S. S. Iyengar, J. Tomasi, 
 M. Cossi, N. Rega, J. M. Millam, M. Klene, J. E. Knox, J. B. Cross, 
 V. Bakken, C. Adamo, J. Jaramillo, R. Gomperts, R. E. Stratmann, 
 O. Yazyev, A. J. Austin, R. Cammi, C. Pomelli, J. W. Ochterski, 
 R. L. Martin, K. Morokuma, V. G. Zakrzewski, G. A. Voth, 
 P. Salvador, J. J. Dannenberg, S. Dapprich, A. D. Daniels, 
 O. Farkas, J. B. Foresman, J. V. Ortiz, J. Cioslowski, 
 and D. J. Fox, Gaussian, Inc., Wallingford CT, 2009.
 
 ******************************************
 Gaussian 09:  EM64L-G09RevA.02 11-Jun-2009
                 5-Dec-2019 
 ******************************************
 %chk=CHI8_-160
 %NoSave
 ---------------------------------
 #SP HF/6-31G* Geom=(ModRedundant)
 ---------------------------------
 1/18=120,38=1/1;
 2/12=2,17=6,18=5,40=1/2;
 3/5=1,6=6,7=1,11=9,16=1,25=1,30=1/1,2,3;
 4//1;
 5/5=2,38=5/2;
 6/7=2,8=2,9=2,10=2,28=1/1;
 99/5=1,9=1/99;
 ------------
 paramfit run
 ------------
 Symbolic Z-matrix:
 Charge =  0 Multiplicity = 1
 C-CT--0.3208          0.        0.        0. 
 N-N--0.5622           1.44819   0.        0. 
 C-C-0.8053            2.1232    0.47592   1.07237 
 O-O--0.6151           1.59018   0.69673   2.12445 
 C-CX-0.0839           3.65051   0.59414   0.92154 
 C-CU--0.3230          4.1989    1.54925   1.98685 
 C-CU--0.0657          4.30775  -0.80912   1.02398 
 C-CU--0.0109          4.13357  -1.62278   2.31907 
 C-CU-0.0816           2.83273  -2.4333    2.48497 
 C-CM--0.2354          2.57934  -3.42359   1.37258 
 C-CM--0.2653          2.83409  -4.72199   1.37554 
 C-CU-0.1214           3.44273  -5.53566   2.49234 
 C-CU--0.0354          2.42774  -6.37022   3.29413 
 C-CU--0.0984          1.69389  -7.40262   2.4278 
 C-CU-0.1300           0.35031  -7.97108   2.95343 
 C-CU--0.3561         -0.20163  -8.92523   1.88179 
 N-N--0.7186           0.609    -8.71513   4.17858 
 C-C-0.8537           -0.40938  -9.20721   4.94264 
 C-CT--0.3868         -0.01659  -9.61023   6.34553 
 O-O--0.6323          -1.53363  -9.315     4.53817 
 C-C-0.7903           -0.58452  -6.78824   3.29362 
 O-O--0.6136          -0.49537  -6.23114   4.35457 
 N-N--0.5650          -1.41649  -6.35349   2.32265 
 C-CT--0.3231         -2.3543   -5.2826    2.5908 
 N-N--0.7191           3.99741   1.07028  -0.42545 
 C-C-0.8539            3.58702   2.26716  -0.93409 
 C-CT--0.3903          4.32815   2.72766  -2.17214 
 O-O--0.6290           2.69713   2.90543  -0.4474 
 H-H1-0.1459          -0.40326   1.00615   0. 
 H-H1-0.1459          -0.36496  -0.516     0.87594 
 H-H1-0.1459          -0.34566  -0.52209  -0.88335 
 H-H-0.3572            1.90424   0.07091  -0.87936 
 H-HC-0.0997           3.93214   1.22176   2.98008 
 H-HC-0.0997           5.28092   1.59593   1.9075 
 H-HC-0.0997           3.79271   2.54059   1.8484 
 H-HC-0.0347           5.37458  -0.64325   0.89141 
 H-HC-0.0347           3.98464  -1.40332   0.17498 
 H-HC-0.0243           4.96157  -2.32476   2.35464 
 H-HC-0.0243           4.25012  -0.97572   3.18226 
 H-HC-0.0171           1.98572  -1.76405   2.56272 
 H-HC-0.0171           2.89564  -2.94811   3.43725 
 H-HA-0.1313           2.1355   -3.00918   0.48186 
 H-HA-0.1359           2.57948  -5.27639   0.48583 
 H-HC-0.0092           3.97152  -4.88991   3.18288 
 H-HC-0.0092           4.19182  -6.20202   2.06638 
 H-HC-0.0318           2.96562  -6.85691   4.10295 
 H-HC-0.0318           1.71458  -5.70792   3.767 
 H-HC-0.0435           2.34489  -8.25692   2.25489 
 H-HC-0.0435           1.49566  -6.9622    1.45771 
 H-HC-0.1066           0.47159  -9.76949   1.78907 
 H-HC-0.1066          -0.25081  -8.44093   0.91204 
 H-HC-0.1066          -1.17843  -9.30091   2.14725 
 H-H-0.3529            1.4097   -8.42392   4.69121 
 H-HC-0.1047          -0.74688  -10.30532   6.73099 
 H-HC-0.1047          -0.01479  -8.7236    6.97244 
 H-HC-0.1047           0.97115  -10.05693   6.38052 
 H-H-0.3615           -1.63141  -6.96867   1.57386 
 H-H1-0.1469          -2.83602  -5.0047    1.66255 
 H-H1-0.1469          -1.82708  -4.42601   2.98441 
 H-H1-0.1469          -3.11038  -5.58014   3.31022 
 H-H-0.3570            4.82812   0.68479  -0.81644 
 H-HC-0.1060           3.71017   3.4346   -2.70629 
 H-HC-0.1060           4.58817   1.90253  -2.82568 
 H-HC-0.1060           5.24477   3.2262   -1.87372 
 
 The following ModRedundant input section has been read:
 D    *   13   14    * F                                                       
 Stoichiometry    C20H36N4O4
 Framework group  C1[X(C20H36N4O4)]
 Deg. of freedom   186
 Full point group                 C1      NOp   1
 Largest Abelian subgroup         C1      NOp   1
 Largest concise Abelian subgroup C1      NOp   1
                         Standard orientation:                         
 ---------------------------------------------------------------------
 Center     Atomic      Atomic             Coordinates (Angstroms)
 Number     Number       Type             X           Y           Z
 ---------------------------------------------------------------------
      1          6    20001001       -3.275794    2.867687    0.170067
      2          7    20001014       -3.736891    1.506576    0.348986
      3          6    20001002       -3.989679    0.731943   -0.731824
      4          8    20001024       -3.640778    1.035321   -1.839062
      5          6    90000001       -4.633407   -0.638639   -0.455226
      6          6    90000002       -5.269613   -1.175684   -1.741564
      7          6    90000002       -3.572787   -1.623180    0.108129
      8          6    90000002       -2.342559   -1.967505   -0.750716
      9          6    90000002       -1.157029   -0.982264   -0.729409
     10          6    20001004       -0.600529   -0.719821    0.650341
     11          6    20001004        0.460771   -1.276709    1.210945
     12          6    90000002        1.378501   -2.314179    0.609963
     13          6    90000002        2.719776   -1.755448    0.101664
     14          6    90000002        3.553575   -1.110516    1.216902
     15          6    90000002        4.667570   -0.112027    0.808640
     16          6    90000002        5.301822    0.430088    2.099874
     17          7    20001014        5.673963   -0.829508    0.037973
     18          6    20001002        6.701885   -0.175020   -0.576908
     19          6    20001001        7.428856   -0.977825   -1.631337
     20          8    20001024        7.011076    0.952006   -0.306065
     21          6    20001002        4.046153    0.973836   -0.098810
     22          8    20001024        3.904481    0.772376   -1.274936
     23          7    20001014        3.584361    2.093918    0.497969
     24          6    20001001        3.036732    3.172494   -0.298887
     25          7    20001014       -5.640337   -0.526586    0.610121
     26          6    20001002       -6.742266    0.272684    0.528934
     27          6    20001001       -7.822319   -0.015631    1.550931
     28          8    20001024       -6.847310    1.148443   -0.282331
     29          1    20001035       -4.031852    3.492151   -0.291853
     30          1    20001035       -2.395204    2.875462   -0.455412
     31          1    20001035       -3.020222    3.276328    1.139628
     32          1    20001029       -4.256443    1.305417    1.171109
     33          1    20001034       -4.544382   -1.242245   -2.538146
     34          1    20001034       -5.683308   -2.162292   -1.555285
     35          1    20001034       -6.060851   -0.518984   -2.072644
     36          1    20001034       -4.105306   -2.553716    0.291826
     37          1    20001034       -3.248809   -1.261536    1.078969
     38          1    20001034       -1.976498   -2.925469   -0.393054
     39          1    20001034       -2.642195   -2.125514   -1.781554
     40          1    20001034       -1.448063   -0.041507   -1.178450
     41          1    20001034       -0.386628   -1.394588   -1.371519
     42          1    20001033       -1.139537    0.011321    1.230871
     43          1    20001033        0.713500   -0.960003    2.210738
     44          1    20001034        0.887502   -2.818688   -0.213358
     45          1    20001034        1.574618   -3.078974    1.360443
     46          1    20001034        3.263324   -2.573037   -0.363609
     47          1    20001034        2.532429   -1.036624   -0.685117
     48          1    20001034        4.035927   -1.889455    1.803524
     49          1    20001034        2.885334   -0.584899    1.888862
     50          1    20001034        5.796720   -0.386446    2.612643
     51          1    20001034        4.547671    0.826243    2.771959
     52          1    20001034        6.037258    1.193058    1.893118
     53          1    20001029        5.344926   -1.633548   -0.445726
     54          1    20001034        8.409168   -0.553144   -1.785275
     55          1    20001034        6.871327   -0.913059   -2.560903
     56          1    20001034        7.519450   -2.023505   -1.357972
     57          1    20001029        3.927880    2.324809    1.400186
     58          1    20001035        2.616467    3.914905    0.366789
     59          1    20001035        2.255544    2.791866   -0.940364
     60          1    20001035        3.794283    3.638578   -0.920688
     61          1    20001029       -5.704693   -1.307936    1.224041
     62          1    20001034       -8.436521    0.865314    1.667826
     63          1    20001034       -7.411665   -0.305109    2.511720
     64          1    20001034       -8.446525   -0.826848    1.190242
 ---------------------------------------------------------------------
 Rotational constants (GHZ):      0.4088167      0.0544759      0.0521674
 Standard basis: 6-31G(d) (6D, 7F)
 There are   492 symmetry adapted basis functions of A   symmetry.
 Integral buffers will be    131072 words long.
 Raffenetti 1 integral format.
 Two-electron integral symmetry is turned on.
   492 basis functions,   928 primitive gaussians,   492 cartesian basis functions
   108 alpha electrons      108 beta electrons
       nuclear repulsion energy      2724.5534194373 Hartrees.
 NAtoms=   64 NActive=   64 NUniq=   64 SFac= 7.50D-01 NAtFMM=   80 NAOKFM=F Big=T
 One-electron integrals computed using PRISM.
 NBasis=   492 RedAO= T  NBF=   492
 NBsUse=   492 1.00D-06 NBFU=   492
 Harris functional with IExCor=  205 diagonalized for initial guess.
 ExpMin= 1.61D-01 ExpMax= 5.48D+03 ExpMxC= 8.25D+02 IAcc=1 IRadAn=         1 AccDes= 0.00D+00
 HarFok:  IExCor=  205 AccDes= 0.00D+00 IRadAn=         1 IDoV= 1
 ScaDFX=  1.000000  1.000000  1.000000  1.000000
 FoFCou: FMM=F IPFlag=           0 FMFlag=      100000 FMFlg1=           1
         NFxFlg=           0 DoJE=T BraDBF=F KetDBF=T FulRan=T
         Omega=  0.000000  0.000000  1.000000  0.000000  0.000000 ICntrl=     500 IOpCl=  0
         NMat0=    1 NMatS0=    1 NMatT0=    0 NMatD0=    1 NMtDS0=    0 NMtDT0=    0
         I1Cent=           4 NGrid=           0.
 Petite list used in FoFCou.
 Initial guess orbital symmetries:
       Occupied  (A) (A) (A) (A) (A) (A) (A) (A) (A) (A) (A) (A)
                 (A) (A) (A) (A) (A) (A) (A) (A) (A) (A) (A) (A)
                 (A) (A) (A) (A) (A) (A) (A) (A) (A) (A) (A) (A)
                 (A) (A) (A) (A) (A) (A) (A) (A) (A) (A) (A) (A)
                 (A) (A) (A) (A) (A) (A) (A) (A) (A) (A) (A) (A)
                 (A) (A) (A) (A) (A) (A) (A) (A) (A) (A) (A) (A)
                 (A) (A) (A) (A) (A) (A) (A) (A) (A) (A) (A) (A)
                 (A) (A) (A) (A) (A) (A) (A) (A) (A) (A) (A) (A)
                 (A) (A) (A) (A) (A) (A) (A) (A) (A) (A) (A) (A)
       Virtual   (A) (A) (A) (A) (A) (A) (A) (A) (A) (A) (A) (A)
                 (A) (A) (A) (A) (A) (A) (A) (A) (A) (A) (A) (A)
                 (A) (A) (A) (A) (A) (A) (A) (A) (A) (A) (A) (A)
                 (A) (A) (A) (A) (A) (A) (A) (A) (A) (A) (A) (A)
                 (A) (A) (A) (A) (A) (A) (A) (A) (A) (A) (A) (A)
                 (A) (A) (A) (A) (A) (A) (A) (A) (A) (A) (A) (A)
                 (A) (A) (A) (A) (A) (A) (A) (A) (A) (A) (A) (A)
                 (A) (A) (A) (A) (A) (A) (A) (A) (A) (A) (A) (A)
                 (A) (A) (A) (A) (A) (A) (A) (A) (A) (A) (A) (A)
                 (A) (A) (A) (A) (A) (A) (A) (A) (A) (A) (A) (A)
                 (A) (A) (A) (A) (A) (A) (A) (A) (A) (A) (A) (A)
                 (A) (A) (A) (A) (A) (A) (A) (A) (A) (A) (A) (A)
                 (A) (A) (A) (A) (A) (A) (A) (A) (A) (A) (A) (A)
                 (A) (A) (A) (A) (A) (A) (A) (A) (A) (A) (A) (A)
                 (A) (A) (A) (A) (A) (A) (A) (A) (A) (A) (A) (A)
                 (A) (A) (A) (A) (A) (A) (A) (A) (A) (A) (A) (A)
                 (A) (A) (A) (A) (A) (A) (A) (A) (A) (A) (A) (A)
                 (A) (A) (A) (A) (A) (A) (A) (A) (A) (A) (A) (A)
                 (A) (A) (A) (A) (A) (A) (A) (A) (A) (A) (A) (A)
                 (A) (A) (A) (A) (A) (A) (A) (A) (A) (A) (A) (A)
                 (A) (A) (A) (A) (A) (A) (A) (A) (A) (A) (A) (A)
                 (A) (A) (A) (A) (A) (A) (A) (A) (A) (A) (A) (A)
                 (A) (A) (A) (A) (A) (A) (A) (A) (A) (A) (A) (A)
                 (A) (A) (A) (A) (A) (A) (A) (A) (A) (A) (A) (A)
                 (A) (A) (A) (A) (A) (A) (A) (A) (A) (A) (A) (A)
                 (A) (A) (A) (A) (A) (A) (A) (A) (A) (A) (A) (A)
                 (A) (A) (A) (A) (A) (A) (A) (A) (A) (A) (A) (A)
                 (A) (A) (A) (A) (A) (A) (A) (A) (A) (A) (A) (A)
                 (A) (A) (A) (A) (A) (A) (A) (A) (A) (A) (A) (A)
                 (A) (A) (A) (A) (A) (A) (A) (A) (A) (A) (A) (A)
                 (A) (A) (A) (A) (A) (A) (A) (A) (A) (A) (A) (A)
                 (A) (A) (A) (A) (A) (A) (A) (A) (A) (A) (A) (A)
 The electronic state of the initial guess is 1-A.
 Requested convergence on RMS density matrix=1.00D-08 within 128 cycles.
 Requested convergence on MAX density matrix=1.00D-06.
 Requested convergence on             energy=1.00D-06.
 No special actions if energy rises.
 Integral accuracy reduced to 1.0D-05 until final iterations.
 Initial convergence to 1.0D-05 achieved.  Increase integral accuracy.
 SCF Done:  E(RHF) =  -1295.61961715     A.U. after   14 cycles
             Convg  =    0.6170D-08             -V/T =  2.0012

 **********************************************************************

            Population analysis using the SCF density.

 **********************************************************************

 Orbital symmetries:
       Occupied  (A) (A) (A) (A) (A) (A) (A) (A) (A) (A) (A) (A)
                 (A) (A) (A) (A) (A) (A) (A) (A) (A) (A) (A) (A)
                 (A) (A) (A) (A) (A) (A) (A) (A) (A) (A) (A) (A)
                 (A) (A) (A) (A) (A) (A) (A) (A) (A) (A) (A) (A)
                 (A) (A) (A) (A) (A) (A) (A) (A) (A) (A) (A) (A)
                 (A) (A) (A) (A) (A) (A) (A) (A) (A) (A) (A) (A)
                 (A) (A) (A) (A) (A) (A) (A) (A) (A) (A) (A) (A)
                 (A) (A) (A) (A) (A) (A) (A) (A) (A) (A) (A) (A)
                 (A) (A) (A) (A) (A) (A) (A) (A) (A) (A) (A) (A)
       Virtual   (A) (A) (A) (A) (A) (A) (A) (A) (A) (A) (A) (A)
                 (A) (A) (A) (A) (A) (A) (A) (A) (A) (A) (A) (A)
                 (A) (A) (A) (A) (A) (A) (A) (A) (A) (A) (A) (A)
                 (A) (A) (A) (A) (A) (A) (A) (A) (A) (A) (A) (A)
                 (A) (A) (A) (A) (A) (A) (A) (A) (A) (A) (A) (A)
                 (A) (A) (A) (A) (A) (A) (A) (A) (A) (A) (A) (A)
                 (A) (A) (A) (A) (A) (A) (A) (A) (A) (A) (A) (A)
                 (A) (A) (A) (A) (A) (A) (A) (A) (A) (A) (A) (A)
                 (A) (A) (A) (A) (A) (A) (A) (A) (A) (A) (A) (A)
                 (A) (A) (A) (A) (A) (A) (A) (A) (A) (A) (A) (A)
                 (A) (A) (A) (A) (A) (A) (A) (A) (A) (A) (A) (A)
                 (A) (A) (A) (A) (A) (A) (A) (A) (A) (A) (A) (A)
                 (A) (A) (A) (A) (A) (A) (A) (A) (A) (A) (A) (A)
                 (A) (A) (A) (A) (A) (A) (A) (A) (A) (A) (A) (A)
                 (A) (A) (A) (A) (A) (A) (A) (A) (A) (A) (A) (A)
                 (A) (A) (A) (A) (A) (A) (A) (A) (A) (A) (A) (A)
                 (A) (A) (A) (A) (A) (A) (A) (A) (A) (A) (A) (A)
                 (A) (A) (A) (A) (A) (A) (A) (A) (A) (A) (A) (A)
                 (A) (A) (A) (A) (A) (A) (A) (A) (A) (A) (A) (A)
                 (A) (A) (A) (A) (A) (A) (A) (A) (A) (A) (A) (A)
                 (A) (A) (A) (A) (A) (A) (A) (A) (A) (A) (A) (A)
                 (A) (A) (A) (A) (A) (A) (A) (A) (A) (A) (A) (A)
                 (A) (A) (A) (A) (A) (A) (A) (A) (A) (A) (A) (A)
                 (A) (A) (A) (A) (A) (A) (A) (A) (A) (A) (A) (A)
                 (A) (A) (A) (A) (A) (A) (A) (A) (A) (A) (A) (A)
                 (A) (A) (A) (A) (A) (A) (A) (A) (A) (A) (A) (A)
                 (A) (A) (A) (A) (A) (A) (A) (A) (A) (A) (A) (A)
                 (A) (A) (A) (A) (A) (A) (A) (A) (A) (A) (A) (A)
                 (A) (A) (A) (A) (A) (A) (A) (A) (A) (A) (A) (A)
                 (A) (A) (A) (A) (A) (A) (A) (A) (A) (A) (A) (A)
                 (A) (A) (A) (A) (A) (A) (A) (A) (A) (A) (A) (A)
                 (A) (A) (A) (A) (A) (A) (A) (A) (A) (A) (A) (A)
 The electronic state is 1-A.
 Alpha  occ. eigenvalues --  -20.53606 -20.52007 -20.51779 -20.51573 -15.59559
 Alpha  occ. eigenvalues --  -15.57852 -15.57485 -15.57481 -11.35925 -11.34200
 Alpha  occ. eigenvalues --  -11.33795 -11.33654 -11.28964 -11.28503 -11.24900
 Alpha  occ. eigenvalues --  -11.24862 -11.24326 -11.23928 -11.23252 -11.22594
 Alpha  occ. eigenvalues --  -11.22451 -11.22421 -11.22099 -11.21968 -11.21907
 Alpha  occ. eigenvalues --  -11.21757 -11.21444 -11.20793  -1.40541  -1.39353
 Alpha  occ. eigenvalues --   -1.38638  -1.38083  -1.25380  -1.23489  -1.22566
 Alpha  occ. eigenvalues --   -1.22028  -1.10654  -1.09179  -1.07091  -1.04116
 Alpha  occ. eigenvalues --   -1.01147  -0.99252  -0.98666  -0.95473  -0.95049
 Alpha  occ. eigenvalues --   -0.94495  -0.92098  -0.87199  -0.85644  -0.82759
 Alpha  occ. eigenvalues --   -0.81241  -0.79405  -0.78686  -0.77126  -0.76819
 Alpha  occ. eigenvalues --   -0.71923  -0.71208  -0.70981  -0.68889  -0.68035
 Alpha  occ. eigenvalues --   -0.66385  -0.65784  -0.64532  -0.63970  -0.63833
 Alpha  occ. eigenvalues --   -0.62559  -0.62259  -0.61732  -0.61264  -0.60970
 Alpha  occ. eigenvalues --   -0.60862  -0.59862  -0.59216  -0.58518  -0.58335
 Alpha  occ. eigenvalues --   -0.58215  -0.57775  -0.56627  -0.56561  -0.56000
 Alpha  occ. eigenvalues --   -0.55317  -0.54763  -0.54660  -0.54520  -0.54168
 Alpha  occ. eigenvalues --   -0.53177  -0.52724  -0.52443  -0.51760  -0.51437
 Alpha  occ. eigenvalues --   -0.50970  -0.50292  -0.49724  -0.49124  -0.48341
 Alpha  occ. eigenvalues --   -0.48086  -0.46820  -0.46408  -0.44357  -0.42816
 Alpha  occ. eigenvalues --   -0.41881  -0.41430  -0.41003  -0.39230  -0.38822
 Alpha  occ. eigenvalues --   -0.38260  -0.38132  -0.34403
 Alpha virt. eigenvalues --    0.17339   0.18841   0.19564   0.20032   0.20268
 Alpha virt. eigenvalues --    0.21586   0.22147   0.23101   0.23393   0.23943
 Alpha virt. eigenvalues --    0.25306   0.25787   0.26597   0.26658   0.27743
 Alpha virt. eigenvalues --    0.27939   0.28443   0.29092   0.29470   0.29584
 Alpha virt. eigenvalues --    0.30012   0.30359   0.31163   0.31566   0.32152
 Alpha virt. eigenvalues --    0.32317   0.32484   0.32641   0.33314   0.33595
 Alpha virt. eigenvalues --    0.33824   0.34442   0.34909   0.35058   0.35609
 Alpha virt. eigenvalues --    0.35629   0.36471   0.37143   0.37381   0.37648
 Alpha virt. eigenvalues --    0.38325   0.38683   0.38781   0.39679   0.40172
 Alpha virt. eigenvalues --    0.40896   0.41484   0.41947   0.42348   0.43734
 Alpha virt. eigenvalues --    0.44718   0.44900   0.45604   0.45957   0.47054
 Alpha virt. eigenvalues --    0.47299   0.49059   0.49534   0.52553   0.52931
 Alpha virt. eigenvalues --    0.53899   0.55192   0.58263   0.58945   0.60117
 Alpha virt. eigenvalues --    0.62309   0.63598   0.64394   0.69045   0.70359
 Alpha virt. eigenvalues --    0.71071   0.71411   0.72123   0.72846   0.73433
 Alpha virt. eigenvalues --    0.74048   0.74467   0.75479   0.75703   0.76434
 Alpha virt. eigenvalues --    0.76830   0.77353   0.77940   0.78337   0.79034
 Alpha virt. eigenvalues --    0.79810   0.80546   0.80774   0.81267   0.82405
 Alpha virt. eigenvalues --    0.83208   0.83536   0.85148   0.85861   0.86426
 Alpha virt. eigenvalues --    0.87298   0.87678   0.89260   0.89927   0.90943
 Alpha virt. eigenvalues --    0.91564   0.92249   0.93080   0.93384   0.94075
 Alpha virt. eigenvalues --    0.94623   0.95803   0.96937   0.97337   0.98012
 Alpha virt. eigenvalues --    0.98408   0.98593   1.00049   1.00535   1.00573
 Alpha virt. eigenvalues --    1.01148   1.01965   1.02371   1.02945   1.03252
 Alpha virt. eigenvalues --    1.03977   1.05015   1.05761   1.06237   1.06895
 Alpha virt. eigenvalues --    1.07480   1.08179   1.09127   1.11124   1.11638
 Alpha virt. eigenvalues --    1.11956   1.12171   1.12690   1.13677   1.14067
 Alpha virt. eigenvalues --    1.14355   1.14992   1.15279   1.15682   1.16008
 Alpha virt. eigenvalues --    1.16206   1.16708   1.16951   1.17755   1.18043
 Alpha virt. eigenvalues --    1.18348   1.18491   1.18784   1.19028   1.19760
 Alpha virt. eigenvalues --    1.19816   1.20287   1.20738   1.20965   1.21615
 Alpha virt. eigenvalues --    1.22148   1.22249   1.22672   1.22769   1.23079
 Alpha virt. eigenvalues --    1.23634   1.24054   1.24662   1.25118   1.26389
 Alpha virt. eigenvalues --    1.26927   1.26975   1.27214   1.28027   1.28876
 Alpha virt. eigenvalues --    1.29958   1.30865   1.31117   1.31232   1.32536
 Alpha virt. eigenvalues --    1.32830   1.33724   1.34643   1.36095   1.36905
 Alpha virt. eigenvalues --    1.37845   1.39274   1.40640   1.41893   1.43834
 Alpha virt. eigenvalues --    1.44300   1.45582   1.46998   1.47722   1.50094
 Alpha virt. eigenvalues --    1.50906   1.51057   1.53777   1.54333   1.55925
 Alpha virt. eigenvalues --    1.56715   1.59117   1.60262   1.60915   1.61400
 Alpha virt. eigenvalues --    1.61924   1.63644   1.66136   1.67209   1.68404
 Alpha virt. eigenvalues --    1.68598   1.71868   1.71917   1.72918   1.73154
 Alpha virt. eigenvalues --    1.74086   1.75374   1.77450   1.78569   1.79505
 Alpha virt. eigenvalues --    1.79932   1.81166   1.82572   1.87130   1.88356
 Alpha virt. eigenvalues --    1.90070   1.91324   1.92300   1.93084   1.94878
 Alpha virt. eigenvalues --    1.95989   1.96816   1.98969   1.99881   2.01857
 Alpha virt. eigenvalues --    2.02830   2.04612   2.06067   2.07543   2.07975
 Alpha virt. eigenvalues --    2.09217   2.10993   2.11642   2.12374   2.12522
 Alpha virt. eigenvalues --    2.13014   2.13295   2.14183   2.15743   2.16017
 Alpha virt. eigenvalues --    2.16459   2.17302   2.18458   2.18927   2.19394
 Alpha virt. eigenvalues --    2.20258   2.21658   2.22290   2.23249   2.23556
 Alpha virt. eigenvalues --    2.24927   2.25589   2.26564   2.27142   2.27786
 Alpha virt. eigenvalues --    2.28416   2.29485   2.29991   2.31297   2.31409
 Alpha virt. eigenvalues --    2.32822   2.34287   2.34416   2.34888   2.36142
 Alpha virt. eigenvalues --    2.36803   2.37250   2.38265   2.38378   2.39509
 Alpha virt. eigenvalues --    2.40512   2.40976   2.42122   2.43319   2.45105
 Alpha virt. eigenvalues --    2.45560   2.46046   2.47652   2.49472   2.50394
 Alpha virt. eigenvalues --    2.51807   2.52428   2.54623   2.55346   2.55672
 Alpha virt. eigenvalues --    2.56918   2.57227   2.57780   2.59295   2.60461
 Alpha virt. eigenvalues --    2.62595   2.63404   2.64095   2.64563   2.65186
 Alpha virt. eigenvalues --    2.66307   2.69409   2.69831   2.70818   2.71322
 Alpha virt. eigenvalues --    2.72452   2.73885   2.74696   2.75945   2.76467
 Alpha virt. eigenvalues --    2.76718   2.77820   2.78766   2.79182   2.79824
 Alpha virt. eigenvalues --    2.81528   2.83046   2.84132   2.84583   2.86349
 Alpha virt. eigenvalues --    2.87781   2.88357   2.91181   2.91707   2.96149
 Alpha virt. eigenvalues --    2.96292   2.97460   2.98391   2.99277   3.02043
 Alpha virt. eigenvalues --    3.03524   3.04675   3.05686   3.06502   3.06572
 Alpha virt. eigenvalues --    3.11102   3.11391   3.12640   3.14081   3.15666
 Alpha virt. eigenvalues --    3.16820   3.17731   3.21980   3.29660   3.30365
 Alpha virt. eigenvalues --    3.34580   3.34677   3.38799   3.40599   3.41347
 Alpha virt. eigenvalues --    3.42896   3.43080   3.53337   3.55770   3.57689
 Alpha virt. eigenvalues --    3.60207   4.38555   4.40976   4.44763   4.46900
 Alpha virt. eigenvalues --    4.49225   4.52006   4.55199   4.57899   4.60749
 Alpha virt. eigenvalues --    4.62887   4.66797   4.67755   4.68672   4.70165
 Alpha virt. eigenvalues --    4.71536   4.76627   4.79047   4.83204   4.85584
 Alpha virt. eigenvalues --    4.88018   4.89555   4.93453   4.95241   4.99130
 Alpha virt. eigenvalues --    5.04223   5.12082   5.22009   5.23414
          Condensed to atoms (all electrons):
 Mulliken atomic charges:
              1
     1  C   -0.279544
     2  N   -0.783364
     3  C    0.821901
     4  O   -0.627682
     5  C    0.102317
     6  C   -0.472798
     7  C   -0.334141
     8  C   -0.312285
     9  C   -0.373481
    10  C   -0.176537
    11  C   -0.178040
    12  C   -0.347970
    13  C   -0.335292
    14  C   -0.329912
    15  C    0.091422
    16  C   -0.509705
    17  N   -0.787972
    18  C    0.766969
    19  C   -0.595197
    20  O   -0.613810
    21  C    0.820507
    22  O   -0.637919
    23  N   -0.803841
    24  C   -0.275777
    25  N   -0.843072
    26  C    0.744564
    27  C   -0.588651
    28  O   -0.591756
    29  H    0.186991
    30  H    0.198595
    31  H    0.161545
    32  H    0.391148
    33  H    0.199185
    34  H    0.143900
    35  H    0.212389
    36  H    0.161069
    37  H    0.181894
    38  H    0.164169
    39  H    0.179657
    40  H    0.213982
    41  H    0.176492
    42  H    0.179679
    43  H    0.167852
    44  H    0.175939
    45  H    0.159460
    46  H    0.144876
    47  H    0.223836
    48  H    0.176813
    49  H    0.181189
    50  H    0.183692
    51  H    0.147624
    52  H    0.226451
    53  H    0.390799
    54  H    0.210943
    55  H    0.209719
    56  H    0.176406
    57  H    0.394973
    58  H    0.163399
    59  H    0.201968
    60  H    0.184987
    61  H    0.382532
    62  H    0.218520
    63  H    0.177086
    64  H    0.201310
 Sum of Mulliken atomic charges =   0.00000
 Mulliken charges with hydrogens summed into heavy atoms:
              1
     1  C    0.267588
     2  N   -0.392216
     3  C    0.821901
     4  O   -0.627682
     5  C    0.102317
     6  C    0.082676
     7  C    0.008822
     8  C    0.031541
     9  C    0.016992
    10  C    0.003141
    11  C   -0.010189
    12  C   -0.012572
    13  C    0.033420
    14  C    0.028089
    15  C    0.091422
    16  C    0.048063
    17  N   -0.397174
    18  C    0.766969
    19  C    0.001871
    20  O   -0.613810
    21  C    0.820507
    22  O   -0.637919
    23  N   -0.408868
    24  C    0.274577
    25  N   -0.460540
    26  C    0.744564
    27  C    0.008265
    28  O   -0.591756
 Sum of Mulliken charges with hydrogens summed into heavy atoms =   0.00000
 Electronic spatial extent (au):  <R**2>=          20233.6420
 Charge=              0.0000 electrons
 Dipole moment (field-independent basis, Debye):
    X=             -2.3610    Y=             -4.5586    Z=              6.9620  Tot=              8.6501
 Quadrupole moment (field-independent basis, Debye-Ang):
   XX=           -180.6805   YY=           -160.6092   ZZ=           -172.8209
   XY=              3.5478   XZ=            -20.2264   YZ=             11.6847
 Traceless Quadrupole moment (field-independent basis, Debye-Ang):
   XX=             -9.3103   YY=             10.7610   ZZ=             -1.4507
   XY=              3.5478   XZ=            -20.2264   YZ=             11.6847
 Octapole moment (field-independent basis, Debye-Ang**2):
  XXX=           -208.5654  YYY=             49.7315  ZZZ=             14.4394  XYY=             18.2401
  XXY=           -240.2658  XXZ=            148.9820  XZZ=             12.4403  YZZ=             -0.1930
  YYZ=              7.6756  XYZ=              7.4489
 Hexadecapole moment (field-independent basis, Debye-Ang**3):
 XXXX=         -23353.4299 YYYY=          -2337.7490 ZZZZ=          -1343.8573 XXXY=            -64.4331
 XXXZ=          -1132.5305 YYYX=             30.1872 YYYZ=             14.8415 ZZZX=            -76.4292
 ZZZY=             30.2927 XXYY=          -4195.5910 XXZZ=          -3875.6618 YYZZ=           -624.1240
 XXYZ=            255.7989 YYXZ=            -33.1387 ZZXY=             22.8667
 N-N= 2.724553419437D+03 E-N=-8.481324028283D+03  KE= 1.294030425023D+03
 1\1\GINC-MOSURA\SP\RHF\6-31G(d)\C20H36N4O4\MARIE\05-Dec-2019\0\\#SP HF
 /6-31G* Geom=(ModRedundant)\\paramfit run\\0,1\C,0,0.,0.,0.\N,0,1.4481
 87,0.,0.\C,0,2.1232,0.47592,1.072365\O,0,1.590179,0.696732,2.124447\C,
 0,3.650505,0.594143,0.921539\C,0,4.198902,1.549248,1.986845\C,0,4.3077
 51,-0.809116,1.023981\C,0,4.133566,-1.622781,2.319066\C,0,2.832729,-2.
 433298,2.484965\C,0,2.579342,-3.423586,1.372579\C,0,2.834093,-4.721989
 ,1.375535\C,0,3.442731,-5.535663,2.492337\C,0,2.42774,-6.370218,3.2941
 33\C,0,1.693892,-7.402618,2.427801\C,0,0.350308,-7.971076,2.953427\C,0
 ,-0.201626,-8.925231,1.88179\N,0,0.609004,-8.715127,4.178579\C,0,-0.40
 9384,-9.207215,4.942642\C,0,-0.016585,-9.610231,6.345529\O,0,-1.533628
 ,-9.315001,4.538168\C,0,-0.58452,-6.788245,3.29362\O,0,-0.495371,-6.23
 1136,4.354568\N,0,-1.416491,-6.35349,2.322645\C,0,-2.354301,-5.282598,
 2.590799\N,0,3.997412,1.070275,-0.425452\C,0,3.587019,2.267163,-0.9340
 86\C,0,4.328148,2.727659,-2.172145\O,0,2.697134,2.905425,-0.447397\H,0
 ,-0.403259,1.006147,0.\H,0,-0.36496,-0.516002,0.875939\H,0,-0.345658,-
 0.522086,-0.883346\H,0,1.904244,0.070913,-0.879357\H,0,3.932135,1.2217
 6,2.980082\H,0,5.28092,1.595925,1.9075\H,0,3.792711,2.540594,1.848395\
 H,0,5.374584,-0.64325,0.891407\H,0,3.984642,-1.403324,0.174983\H,0,4.9
 61565,-2.324757,2.354635\H,0,4.250121,-0.975721,3.182259\H,0,1.985724,
 -1.764045,2.562723\H,0,2.895638,-2.94811,3.437249\H,0,2.135502,-3.0091
 81,0.481856\H,0,2.579482,-5.276386,0.485828\H,0,3.971519,-4.889909,3.1
 82881\H,0,4.191817,-6.202016,2.066382\H,0,2.965623,-6.85691,4.102952\H
 ,0,1.714584,-5.707921,3.766998\H,0,2.344891,-8.256923,2.254894\H,0,1.4
 95662,-6.962197,1.457706\H,0,0.471588,-9.769488,1.789073\H,0,-0.250809
 ,-8.440925,0.912043\H,0,-1.178425,-9.300905,2.147255\H,0,1.409704,-8.4
 2392,4.691209\H,0,-0.746877,-10.305323,6.730994\H,0,-0.014786,-8.72360
 2,6.972435\H,0,0.971149,-10.056929,6.380517\H,0,-1.631409,-6.968665,1.
 573859\H,0,-2.83602,-5.004699,1.662553\H,0,-1.827084,-4.426012,2.98440
 8\H,0,-3.110383,-5.580143,3.310216\H,0,4.82812,0.684785,-0.816437\H,0,
 3.710173,3.434604,-2.706288\H,0,4.588171,1.902533,-2.825678\H,0,5.2447
 71,3.226201,-1.873716\\Version=EM64L-G09RevA.02\State=1-A\HF=-1295.619
 6172\RMSD=6.170e-09\Dipole=2.3197939,-0.7428392,-2.3766607\Quadrupole=
 7.0934116,-18.7495168,11.6561053,1.5353078,4.1573963,-8.7523094\PG=C01
  [X(C20H36N4O4)]\\@


 DO NOT LET SELFISH MEN OR GREEDY INTERESTS SKIN YOUR COUNTRY OF ITS
 BEAUTY, ITS RICHES, OR ITS ROMANCE. -- THEODORE ROOSEVELT
 Job cpu time:  0 days  0 hours  5 minutes 34.1 seconds.
 File lengths (MBytes):  RWF=    132 Int=      0 D2E=      0 Chk=     10 Scr=      1
 Normal termination of Gaussian 09 at Thu Dec  5 18:33:18 2019.
