 Entering Gaussian System, Link 0=g09
 Input=CHI9_70.gau
 Output=CHI9_70.log
 Initial command:
 /home/marie/Utilities//g09/l1.exe /tmp/g09/Gau-14137.inp -scrdir=/tmp/g09/
 Entering Link 1 = /home/marie/Utilities//g09/l1.exe PID=     14139.
  
 Copyright (c) 1988,1990,1992,1993,1995,1998,2003,2009, Gaussian, Inc.
                  All Rights Reserved.
  
 This is part of the Gaussian(R) 09 program.  It is based on
 the Gaussian(R) 03 system (copyright 2003, Gaussian, Inc.),
 the Gaussian(R) 98 system (copyright 1998, Gaussian, Inc.),
 the Gaussian(R) 94 system (copyright 1995, Gaussian, Inc.),
 the Gaussian 92(TM) system (copyright 1992, Gaussian, Inc.),
 the Gaussian 90(TM) system (copyright 1990, Gaussian, Inc.),
 the Gaussian 88(TM) system (copyright 1988, Gaussian, Inc.),
 the Gaussian 86(TM) system (copyright 1986, Carnegie Mellon
 University), and the Gaussian 82(TM) system (copyright 1983,
 Carnegie Mellon University). Gaussian is a federally registered
 trademark of Gaussian, Inc.
  
 This software contains proprietary and confidential information,
 including trade secrets, belonging to Gaussian, Inc.
  
 This software is provided under written license and may be
 used, copied, transmitted, or stored only in accord with that
 written license.
  
 The following legend is applicable only to US Government
 contracts under FAR:
  
                    RESTRICTED RIGHTS LEGEND
  
 Use, reproduction and disclosure by the US Government is
 subject to restrictions as set forth in subparagraphs (a)
 and (c) of the Commercial Computer Software - Restricted
 Rights clause in FAR 52.227-19.
  
 Gaussian, Inc.
 340 Quinnipiac St., Bldg. 40, Wallingford CT 06492
  
  
 ---------------------------------------------------------------
 Warning -- This program may not be used in any manner that
 competes with the business of Gaussian, Inc. or will provide
 assistance to any competitor of Gaussian, Inc.  The licensee
 of this program is prohibited from giving any competitor of
 Gaussian, Inc. access to this program.  By using this program,
 the user acknowledges that Gaussian, Inc. is engaged in the
 business of creating and licensing software in the field of
 computational chemistry and represents and warrants to the
 licensee that it is not a competitor of Gaussian, Inc. and that
 it will not use this program in any manner prohibited above.
 ---------------------------------------------------------------
  

 Cite this work as:
 Gaussian 09, Revision A.02,
 M. J. Frisch, G. W. Trucks, H. B. Schlegel, G. E. Scuseria, 
 M. A. Robb, J. R. Cheeseman, G. Scalmani, V. Barone, B. Mennucci, 
 G. A. Petersson, H. Nakatsuji, M. Caricato, X. Li, H. P. Hratchian, 
 A. F. Izmaylov, J. Bloino, G. Zheng, J. L. Sonnenberg, M. Hada, 
 M. Ehara, K. Toyota, R. Fukuda, J. Hasegawa, M. Ishida, T. Nakajima, 
 Y. Honda, O. Kitao, H. Nakai, T. Vreven, J. A. Montgomery, Jr., 
 J. E. Peralta, F. Ogliaro, M. Bearpark, J. J. Heyd, E. Brothers, 
 K. N. Kudin, V. N. Staroverov, R. Kobayashi, J. Normand, 
 K. Raghavachari, A. Rendell, J. C. Burant, S. S. Iyengar, J. Tomasi, 
 M. Cossi, N. Rega, J. M. Millam, M. Klene, J. E. Knox, J. B. Cross, 
 V. Bakken, C. Adamo, J. Jaramillo, R. Gomperts, R. E. Stratmann, 
 O. Yazyev, A. J. Austin, R. Cammi, C. Pomelli, J. W. Ochterski, 
 R. L. Martin, K. Morokuma, V. G. Zakrzewski, G. A. Voth, 
 P. Salvador, J. J. Dannenberg, S. Dapprich, A. D. Daniels, 
 O. Farkas, J. B. Foresman, J. V. Ortiz, J. Cioslowski, 
 and D. J. Fox, Gaussian, Inc., Wallingford CT, 2009.
 
 ******************************************
 Gaussian 09:  EM64L-G09RevA.02 11-Jun-2009
                 5-Dec-2019 
 ******************************************
 %chk=CHI9_70
 %NoSave
 ---------------------------------
 #SP HF/6-31G* Geom=(ModRedundant)
 ---------------------------------
 1/18=120,38=1/1;
 2/12=2,17=6,18=5,40=1/2;
 3/5=1,6=6,7=1,11=9,16=1,25=1,30=1/1,2,3;
 4//1;
 5/5=2,38=5/2;
 6/7=2,8=2,9=2,10=2,28=1/1;
 99/5=1,9=1/99;
 ------------
 paramfit run
 ------------
 Symbolic Z-matrix:
 Charge =  0 Multiplicity = 1
 C-CT--0.3208          0.        0.        0. 
 N-N--0.5622           1.44819   0.        0. 
 C-C-0.8053            2.1232    0.47592   1.07237 
 O-O--0.6151           1.59018   0.69673   2.12445 
 C-CX-0.0839           3.65051   0.59414   0.92154 
 C-CU--0.3230          4.1989    1.54925   1.98685 
 C-CU--0.0657          4.30775  -0.80912   1.02398 
 C-CU--0.0109          4.13357  -1.62278   2.31907 
 C-CU-0.0816           2.83273  -2.4333    2.48497 
 C-CM--0.2354          2.57934  -3.42359   1.37258 
 C-CM--0.2653          2.83409  -4.72199   1.37554 
 C-CU-0.1214           3.44273  -5.53566   2.49234 
 C-CU--0.0354          2.42774  -6.37022   3.29413 
 C-CU--0.0984          1.69389  -7.40262   2.4278 
 C-CU-0.1300           0.77427  -8.42854   3.13945 
 C-CU--0.3561         -0.45207  -7.66598   3.66674 
 N-N--0.7186           0.34545  -9.4218    2.16422 
 C-C-0.8537           -0.35718  -10.53085   2.53758 
 C-CT--0.3868         -0.39834  -11.63621   1.50739 
 O-O--0.6323          -0.90369  -10.62811   3.60107 
 C-C-0.7903            1.59466  -9.14769   4.23421 
 O-O--0.6136           2.29076  -10.0856   3.95194 
 N-N--0.5650           1.57339  -8.61815   5.47644 
 C-CT--0.3231          2.27883  -9.271     6.5601 
 N-N--0.7191           3.99741   1.07028  -0.42545 
 C-C-0.8539            3.58702   2.26716  -0.93409 
 C-CT--0.3903          4.32815   2.72766  -2.17214 
 O-O--0.6290           2.69713   2.90543  -0.4474 
 H-H1-0.1459          -0.40326   1.00615   0. 
 H-H1-0.1459          -0.36496  -0.516     0.87594 
 H-H1-0.1459          -0.34566  -0.52209  -0.88335 
 H-H-0.3572            1.90424   0.07091  -0.87936 
 H-HC-0.0997           3.93214   1.22176   2.98008 
 H-HC-0.0997           5.28092   1.59593   1.9075 
 H-HC-0.0997           3.79271   2.54059   1.8484 
 H-HC-0.0347           5.37458  -0.64325   0.89141 
 H-HC-0.0347           3.98464  -1.40332   0.17498 
 H-HC-0.0243           4.96157  -2.32476   2.35464 
 H-HC-0.0243           4.25012  -0.97572   3.18226 
 H-HC-0.0171           1.98572  -1.76405   2.56272 
 H-HC-0.0171           2.89564  -2.94811   3.43725 
 H-HA-0.1313           2.1355   -3.00918   0.48186 
 H-HA-0.1359           2.57948  -5.27639   0.48583 
 H-HC-0.0092           3.97152  -4.88991   3.18288 
 H-HC-0.0092           4.19182  -6.20202   2.06638 
 H-HC-0.0318           2.96562  -6.85691   4.10295 
 H-HC-0.0318           1.71458  -5.70792   3.767 
 H-HC-0.0435           2.42081  -7.97994   1.8605 
 H-HC-0.0435           1.08317  -6.87574   1.70409 
 H-HC-0.1066          -1.01454  -7.2867    2.82154 
 H-HC-0.1066          -0.15572  -6.81324   4.26874 
 H-HC-0.1066          -1.1021   -8.3064    4.24384 
 H-H-0.3529            0.96498  -9.56063   1.39897 
 H-HC-0.1047          -1.24231  -12.27758   1.7109 
 H-HC-0.1047           0.51232  -12.22164   1.59163 
 H-HC-0.1047          -0.46514  -11.2496   0.49623 
 H-H-0.3615            0.8235   -8.01533   5.72055 
 H-H1-0.1469           2.23955  -8.63197   7.43247 
 H-H1-0.1469           3.3112   -9.42544   6.28264 
 H-H1-0.1469           1.84136  -10.23399   6.80304 
 H-H-0.3570            4.82812   0.68479  -0.81644 
 H-HC-0.1060           3.71017   3.4346   -2.70629 
 H-HC-0.1060           4.58817   1.90253  -2.82568 
 H-HC-0.1060           5.24477   3.2262   -1.87372 
 
 The following ModRedundant input section has been read:
 D    *   14   15    * F                                                       
 Stoichiometry    C20H36N4O4
 Framework group  C1[X(C20H36N4O4)]
 Deg. of freedom   186
 Full point group                 C1      NOp   1
 Largest Abelian subgroup         C1      NOp   1
 Largest concise Abelian subgroup C1      NOp   1
                         Standard orientation:                         
 ---------------------------------------------------------------------
 Center     Atomic      Atomic             Coordinates (Angstroms)
 Number     Number       Type             X           Y           Z
 ---------------------------------------------------------------------
      1          6    20001001       -4.001759   -2.507043    1.749446
      2          7    20001014       -4.301286   -1.541659    0.712353
      3          6    20001002       -4.564448   -0.255714    1.042806
      4          8    20001024       -4.346098    0.187229    2.136364
      5          6    90000001       -5.035492    0.661308   -0.100249
      6          6    90000002       -5.721070    1.900259    0.485264
      7          6    90000002       -3.833330    1.050404   -1.003031
      8          6    90000002       -2.652792    1.820353   -0.384044
      9          6    90000002       -1.579021    1.003859    0.362274
     10          6    20001004       -0.935722   -0.076406   -0.475264
     11          6    20001004        0.222306   -0.019918   -1.112868
     12          6    90000002        1.187756    1.139931   -1.161947
     13          6    90000002        2.414504    0.982458   -0.245510
     14          6    90000002        3.269819   -0.239740   -0.605488
     15          6    90000002        4.628258   -0.417379    0.120965
     16          6    90000002        4.328657   -0.776797    1.585379
     17          7    20001014        5.351536   -1.513351   -0.509307
     18          6    20001002        6.641632   -1.804097   -0.171406
     19          6    20001001        7.372786   -2.692289   -1.151883
     20          8    20001024        7.162552   -1.389996    0.826745
     21          6    20001002        5.455269    0.875724   -0.059767
     22          8    20001024        6.101022    1.047410   -1.058493
     23          7    20001014        5.336824    1.827994    0.890566
     24          6    20001001        6.122516    3.042162    0.808783
     25          7    20001014       -5.952729   -0.061947   -0.993003
     26          6    20001002       -7.134828   -0.605459   -0.584458
     27          6    20001001       -8.086536   -0.986693   -1.699372
     28          8    20001024       -7.400310   -0.781698    0.570790
     29          1    20001035       -4.855869   -2.686344    2.392329
     30          1    20001035       -3.184162   -2.147982    2.357173
     31          1    20001035       -3.707313   -3.437655    1.280814
     32          1    20001029       -4.724017   -1.882123   -0.119313
     33          1    20001034       -5.064444    2.428359    1.159716
     34          1    20001034       -6.012026    2.566981   -0.321002
     35          1    20001034       -6.602084    1.615224    1.041587
     36          1    20001034       -4.248083    1.678214   -1.788558
     37          1    20001034       -3.466098    0.153826   -1.492490
     38          1    20001034       -2.159343    2.336178   -1.202610
     39          1    20001034       -3.022315    2.594446    0.280492
     40          1    20001034       -2.004241    0.556323    1.251242
     41          1    20001034       -0.828253    1.704751    0.710026
     42          1    20001033       -1.495779   -0.994606   -0.548449
     43          1    20001033        0.526130   -0.897419   -1.661907
     44          1    20001034        0.682685    2.060936   -0.897147
     45          1    20001034        1.526652    1.264759   -2.189644
     46          1    20001034        2.998034    1.896302   -0.314479
     47          1    20001034        2.085950    0.915936    0.783303
     48          1    20001034        3.488175   -0.226371   -1.671170
     49          1    20001034        2.689296   -1.135582   -0.418915
     50          1    20001034        3.839448   -1.743512    1.612228
     51          1    20001034        3.652388   -0.057850    2.036107
     52          1    20001034        5.232007   -0.839998    2.173345
     53          1    20001029        5.124473   -1.679054   -1.463087
     54          1    20001034        8.205675   -3.161352   -0.650547
     55          1    20001034        7.755060   -2.074976   -1.959296
     56          1    20001034        6.724717   -3.450760   -1.577453
     57          1    20001029        5.003043    1.562403    1.786870
     58          1    20001035        5.795443    3.718445    1.587620
     59          1    20001035        5.970122    3.511273   -0.152120
     60          1    20001035        7.182773    2.844647    0.929596
     61          1    20001029       -5.881987    0.168161   -1.959229
     62          1    20001034       -8.776788   -1.731052   -1.329974
     63          1    20001034       -7.566435   -1.370432   -2.569883
     64          1    20001034       -8.651628   -0.110443   -2.000466
 ---------------------------------------------------------------------
 Rotational constants (GHZ):      0.4097389      0.0459118      0.0443528
 Standard basis: 6-31G(d) (6D, 7F)
 There are   492 symmetry adapted basis functions of A   symmetry.
 Integral buffers will be    131072 words long.
 Raffenetti 1 integral format.
 Two-electron integral symmetry is turned on.
   492 basis functions,   928 primitive gaussians,   492 cartesian basis functions
   108 alpha electrons      108 beta electrons
       nuclear repulsion energy      2660.3196719774 Hartrees.
 NAtoms=   64 NActive=   64 NUniq=   64 SFac= 7.50D-01 NAtFMM=   80 NAOKFM=F Big=T
 One-electron integrals computed using PRISM.
 NBasis=   492 RedAO= T  NBF=   492
 NBsUse=   492 1.00D-06 NBFU=   492
 Harris functional with IExCor=  205 diagonalized for initial guess.
 ExpMin= 1.61D-01 ExpMax= 5.48D+03 ExpMxC= 8.25D+02 IAcc=1 IRadAn=         1 AccDes= 0.00D+00
 HarFok:  IExCor=  205 AccDes= 0.00D+00 IRadAn=         1 IDoV= 1
 ScaDFX=  1.000000  1.000000  1.000000  1.000000
 FoFCou: FMM=F IPFlag=           0 FMFlag=      100000 FMFlg1=           1
         NFxFlg=           0 DoJE=T BraDBF=F KetDBF=T FulRan=T
         Omega=  0.000000  0.000000  1.000000  0.000000  0.000000 ICntrl=     500 IOpCl=  0
         NMat0=    1 NMatS0=    1 NMatT0=    0 NMatD0=    1 NMtDS0=    0 NMtDT0=    0
         I1Cent=           4 NGrid=           0.
 Petite list used in FoFCou.
 Initial guess orbital symmetries:
       Occupied  (A) (A) (A) (A) (A) (A) (A) (A) (A) (A) (A) (A)
                 (A) (A) (A) (A) (A) (A) (A) (A) (A) (A) (A) (A)
                 (A) (A) (A) (A) (A) (A) (A) (A) (A) (A) (A) (A)
                 (A) (A) (A) (A) (A) (A) (A) (A) (A) (A) (A) (A)
                 (A) (A) (A) (A) (A) (A) (A) (A) (A) (A) (A) (A)
                 (A) (A) (A) (A) (A) (A) (A) (A) (A) (A) (A) (A)
                 (A) (A) (A) (A) (A) (A) (A) (A) (A) (A) (A) (A)
                 (A) (A) (A) (A) (A) (A) (A) (A) (A) (A) (A) (A)
                 (A) (A) (A) (A) (A) (A) (A) (A) (A) (A) (A) (A)
       Virtual   (A) (A) (A) (A) (A) (A) (A) (A) (A) (A) (A) (A)
                 (A) (A) (A) (A) (A) (A) (A) (A) (A) (A) (A) (A)
                 (A) (A) (A) (A) (A) (A) (A) (A) (A) (A) (A) (A)
                 (A) (A) (A) (A) (A) (A) (A) (A) (A) (A) (A) (A)
                 (A) (A) (A) (A) (A) (A) (A) (A) (A) (A) (A) (A)
                 (A) (A) (A) (A) (A) (A) (A) (A) (A) (A) (A) (A)
                 (A) (A) (A) (A) (A) (A) (A) (A) (A) (A) (A) (A)
                 (A) (A) (A) (A) (A) (A) (A) (A) (A) (A) (A) (A)
                 (A) (A) (A) (A) (A) (A) (A) (A) (A) (A) (A) (A)
                 (A) (A) (A) (A) (A) (A) (A) (A) (A) (A) (A) (A)
                 (A) (A) (A) (A) (A) (A) (A) (A) (A) (A) (A) (A)
                 (A) (A) (A) (A) (A) (A) (A) (A) (A) (A) (A) (A)
                 (A) (A) (A) (A) (A) (A) (A) (A) (A) (A) (A) (A)
                 (A) (A) (A) (A) (A) (A) (A) (A) (A) (A) (A) (A)
                 (A) (A) (A) (A) (A) (A) (A) (A) (A) (A) (A) (A)
                 (A) (A) (A) (A) (A) (A) (A) (A) (A) (A) (A) (A)
                 (A) (A) (A) (A) (A) (A) (A) (A) (A) (A) (A) (A)
                 (A) (A) (A) (A) (A) (A) (A) (A) (A) (A) (A) (A)
                 (A) (A) (A) (A) (A) (A) (A) (A) (A) (A) (A) (A)
                 (A) (A) (A) (A) (A) (A) (A) (A) (A) (A) (A) (A)
                 (A) (A) (A) (A) (A) (A) (A) (A) (A) (A) (A) (A)
                 (A) (A) (A) (A) (A) (A) (A) (A) (A) (A) (A) (A)
                 (A) (A) (A) (A) (A) (A) (A) (A) (A) (A) (A) (A)
                 (A) (A) (A) (A) (A) (A) (A) (A) (A) (A) (A) (A)
                 (A) (A) (A) (A) (A) (A) (A) (A) (A) (A) (A) (A)
                 (A) (A) (A) (A) (A) (A) (A) (A) (A) (A) (A) (A)
                 (A) (A) (A) (A) (A) (A) (A) (A) (A) (A) (A) (A)
                 (A) (A) (A) (A) (A) (A) (A) (A) (A) (A) (A) (A)
                 (A) (A) (A) (A) (A) (A) (A) (A) (A) (A) (A) (A)
                 (A) (A) (A) (A) (A) (A) (A) (A) (A) (A) (A) (A)
                 (A) (A) (A) (A) (A) (A) (A) (A) (A) (A) (A) (A)
                 (A) (A) (A) (A) (A) (A) (A) (A) (A) (A) (A) (A)
 The electronic state of the initial guess is 1-A.
 Requested convergence on RMS density matrix=1.00D-08 within 128 cycles.
 Requested convergence on MAX density matrix=1.00D-06.
 Requested convergence on             energy=1.00D-06.
 No special actions if energy rises.
 Integral accuracy reduced to 1.0D-05 until final iterations.
 Initial convergence to 1.0D-05 achieved.  Increase integral accuracy.
 SCF Done:  E(RHF) =  -1295.62070580     A.U. after   14 cycles
             Convg  =    0.6150D-08             -V/T =  2.0012

 **********************************************************************

            Population analysis using the SCF density.

 **********************************************************************

 Orbital symmetries:
       Occupied  (A) (A) (A) (A) (A) (A) (A) (A) (A) (A) (A) (A)
                 (A) (A) (A) (A) (A) (A) (A) (A) (A) (A) (A) (A)
                 (A) (A) (A) (A) (A) (A) (A) (A) (A) (A) (A) (A)
                 (A) (A) (A) (A) (A) (A) (A) (A) (A) (A) (A) (A)
                 (A) (A) (A) (A) (A) (A) (A) (A) (A) (A) (A) (A)
                 (A) (A) (A) (A) (A) (A) (A) (A) (A) (A) (A) (A)
                 (A) (A) (A) (A) (A) (A) (A) (A) (A) (A) (A) (A)
                 (A) (A) (A) (A) (A) (A) (A) (A) (A) (A) (A) (A)
                 (A) (A) (A) (A) (A) (A) (A) (A) (A) (A) (A) (A)
       Virtual   (A) (A) (A) (A) (A) (A) (A) (A) (A) (A) (A) (A)
                 (A) (A) (A) (A) (A) (A) (A) (A) (A) (A) (A) (A)
                 (A) (A) (A) (A) (A) (A) (A) (A) (A) (A) (A) (A)
                 (A) (A) (A) (A) (A) (A) (A) (A) (A) (A) (A) (A)
                 (A) (A) (A) (A) (A) (A) (A) (A) (A) (A) (A) (A)
                 (A) (A) (A) (A) (A) (A) (A) (A) (A) (A) (A) (A)
                 (A) (A) (A) (A) (A) (A) (A) (A) (A) (A) (A) (A)
                 (A) (A) (A) (A) (A) (A) (A) (A) (A) (A) (A) (A)
                 (A) (A) (A) (A) (A) (A) (A) (A) (A) (A) (A) (A)
                 (A) (A) (A) (A) (A) (A) (A) (A) (A) (A) (A) (A)
                 (A) (A) (A) (A) (A) (A) (A) (A) (A) (A) (A) (A)
                 (A) (A) (A) (A) (A) (A) (A) (A) (A) (A) (A) (A)
                 (A) (A) (A) (A) (A) (A) (A) (A) (A) (A) (A) (A)
                 (A) (A) (A) (A) (A) (A) (A) (A) (A) (A) (A) (A)
                 (A) (A) (A) (A) (A) (A) (A) (A) (A) (A) (A) (A)
                 (A) (A) (A) (A) (A) (A) (A) (A) (A) (A) (A) (A)
                 (A) (A) (A) (A) (A) (A) (A) (A) (A) (A) (A) (A)
                 (A) (A) (A) (A) (A) (A) (A) (A) (A) (A) (A) (A)
                 (A) (A) (A) (A) (A) (A) (A) (A) (A) (A) (A) (A)
                 (A) (A) (A) (A) (A) (A) (A) (A) (A) (A) (A) (A)
                 (A) (A) (A) (A) (A) (A) (A) (A) (A) (A) (A) (A)
                 (A) (A) (A) (A) (A) (A) (A) (A) (A) (A) (A) (A)
                 (A) (A) (A) (A) (A) (A) (A) (A) (A) (A) (A) (A)
                 (A) (A) (A) (A) (A) (A) (A) (A) (A) (A) (A) (A)
                 (A) (A) (A) (A) (A) (A) (A) (A) (A) (A) (A) (A)
                 (A) (A) (A) (A) (A) (A) (A) (A) (A) (A) (A) (A)
                 (A) (A) (A) (A) (A) (A) (A) (A) (A) (A) (A) (A)
                 (A) (A) (A) (A) (A) (A) (A) (A) (A) (A) (A) (A)
                 (A) (A) (A) (A) (A) (A) (A) (A) (A) (A) (A) (A)
                 (A) (A) (A) (A) (A) (A) (A) (A) (A) (A) (A) (A)
                 (A) (A) (A) (A) (A) (A) (A) (A) (A) (A) (A) (A)
                 (A) (A) (A) (A) (A) (A) (A) (A) (A) (A) (A) (A)
 The electronic state is 1-A.
 Alpha  occ. eigenvalues --  -20.53740 -20.52087 -20.51992 -20.51715 -15.59707
 Alpha  occ. eigenvalues --  -15.57901 -15.57660 -15.57655 -11.36057 -11.34332
 Alpha  occ. eigenvalues --  -11.33999 -11.33711 -11.29150 -11.28536 -11.25134
 Alpha  occ. eigenvalues --  -11.25013 -11.24427 -11.24136 -11.23448 -11.22871
 Alpha  occ. eigenvalues --  -11.22721 -11.22658 -11.22568 -11.22364 -11.22164
 Alpha  occ. eigenvalues --  -11.21841 -11.21562 -11.20979  -1.40680  -1.39417
 Alpha  occ. eigenvalues --   -1.38847  -1.38143  -1.25538  -1.23593  -1.22701
 Alpha  occ. eigenvalues --   -1.22204  -1.10979  -1.09480  -1.07283  -1.04189
 Alpha  occ. eigenvalues --   -1.01264  -0.99453  -0.98557  -0.95638  -0.95262
 Alpha  occ. eigenvalues --   -0.94599  -0.92504  -0.87699  -0.86016  -0.82931
 Alpha  occ. eigenvalues --   -0.81686  -0.79265  -0.78234  -0.77305  -0.76769
 Alpha  occ. eigenvalues --   -0.71727  -0.71502  -0.71275  -0.69025  -0.68337
 Alpha  occ. eigenvalues --   -0.66588  -0.65942  -0.64808  -0.64193  -0.64021
 Alpha  occ. eigenvalues --   -0.63188  -0.62643  -0.62283  -0.61493  -0.61175
 Alpha  occ. eigenvalues --   -0.60768  -0.60019  -0.59472  -0.58818  -0.58722
 Alpha  occ. eigenvalues --   -0.58327  -0.57709  -0.57079  -0.56355  -0.55832
 Alpha  occ. eigenvalues --   -0.55546  -0.54964  -0.54720  -0.54570  -0.53615
 Alpha  occ. eigenvalues --   -0.53414  -0.52922  -0.52576  -0.52122  -0.51369
 Alpha  occ. eigenvalues --   -0.51124  -0.50545  -0.49958  -0.49303  -0.48616
 Alpha  occ. eigenvalues --   -0.48068  -0.47120  -0.46867  -0.44772  -0.42973
 Alpha  occ. eigenvalues --   -0.42062  -0.41560  -0.41060  -0.39406  -0.38902
 Alpha  occ. eigenvalues --   -0.38452  -0.38401  -0.34673
 Alpha virt. eigenvalues --    0.17201   0.18712   0.19818   0.19885   0.20158
 Alpha virt. eigenvalues --    0.21635   0.22128   0.23020   0.23151   0.23856
 Alpha virt. eigenvalues --    0.25190   0.25304   0.25842   0.26733   0.27668
 Alpha virt. eigenvalues --    0.27888   0.28264   0.28808   0.29069   0.29350
 Alpha virt. eigenvalues --    0.29428   0.30171   0.30521   0.31005   0.31640
 Alpha virt. eigenvalues --    0.32017   0.32473   0.32509   0.33011   0.33660
 Alpha virt. eigenvalues --    0.33992   0.34368   0.34552   0.34806   0.35253
 Alpha virt. eigenvalues --    0.35579   0.35906   0.36592   0.36956   0.37321
 Alpha virt. eigenvalues --    0.38070   0.38669   0.39039   0.39384   0.39749
 Alpha virt. eigenvalues --    0.40503   0.40911   0.41648   0.42541   0.43973
 Alpha virt. eigenvalues --    0.44509   0.44675   0.45206   0.45720   0.47023
 Alpha virt. eigenvalues --    0.47702   0.48738   0.48782   0.52259   0.52608
 Alpha virt. eigenvalues --    0.53664   0.54988   0.57610   0.58798   0.60395
 Alpha virt. eigenvalues --    0.61696   0.63174   0.63957   0.68754   0.70317
 Alpha virt. eigenvalues --    0.70760   0.71933   0.72072   0.72703   0.73158
 Alpha virt. eigenvalues --    0.73490   0.74254   0.75049   0.76001   0.76638
 Alpha virt. eigenvalues --    0.76750   0.76928   0.77719   0.78324   0.78958
 Alpha virt. eigenvalues --    0.79591   0.80535   0.80747   0.81599   0.81934
 Alpha virt. eigenvalues --    0.82213   0.83084   0.83602   0.85239   0.86095
 Alpha virt. eigenvalues --    0.87119   0.88082   0.89120   0.89908   0.90846
 Alpha virt. eigenvalues --    0.91150   0.91697   0.93056   0.93600   0.94430
 Alpha virt. eigenvalues --    0.95042   0.96211   0.96731   0.97341   0.97863
 Alpha virt. eigenvalues --    0.98077   0.98559   0.99848   1.00167   1.00292
 Alpha virt. eigenvalues --    1.01131   1.01542   1.02152   1.02777   1.03532
 Alpha virt. eigenvalues --    1.04024   1.05375   1.05638   1.06326   1.06920
 Alpha virt. eigenvalues --    1.07895   1.09121   1.09728   1.10778   1.11210
 Alpha virt. eigenvalues --    1.11814   1.12138   1.12716   1.13238   1.14038
 Alpha virt. eigenvalues --    1.14460   1.14780   1.15022   1.15396   1.15610
 Alpha virt. eigenvalues --    1.15956   1.16472   1.17172   1.17228   1.17852
 Alpha virt. eigenvalues --    1.18157   1.18236   1.18748   1.18940   1.19793
 Alpha virt. eigenvalues --    1.19925   1.20175   1.20612   1.20842   1.21314
 Alpha virt. eigenvalues --    1.21757   1.22279   1.22455   1.22539   1.22620
 Alpha virt. eigenvalues --    1.23634   1.24462   1.24718   1.24915   1.25968
 Alpha virt. eigenvalues --    1.26123   1.26773   1.27291   1.28030   1.28958
 Alpha virt. eigenvalues --    1.29431   1.30594   1.30869   1.31996   1.32512
 Alpha virt. eigenvalues --    1.32745   1.33529   1.34740   1.35875   1.37097
 Alpha virt. eigenvalues --    1.37922   1.38897   1.40516   1.41916   1.42602
 Alpha virt. eigenvalues --    1.43680   1.44313   1.45167   1.46675   1.49486
 Alpha virt. eigenvalues --    1.49915   1.50833   1.52562   1.53945   1.55086
 Alpha virt. eigenvalues --    1.56693   1.58374   1.59030   1.60338   1.61264
 Alpha virt. eigenvalues --    1.61882   1.63140   1.64223   1.65775   1.68061
 Alpha virt. eigenvalues --    1.69818   1.71378   1.71793   1.72198   1.73032
 Alpha virt. eigenvalues --    1.73835   1.75233   1.77331   1.79076   1.79860
 Alpha virt. eigenvalues --    1.81063   1.82132   1.84332   1.85168   1.86699
 Alpha virt. eigenvalues --    1.88842   1.89903   1.91413   1.93651   1.93947
 Alpha virt. eigenvalues --    1.96314   1.96681   1.98932   1.99687   2.00046
 Alpha virt. eigenvalues --    2.01645   2.04694   2.05848   2.06826   2.07794
 Alpha virt. eigenvalues --    2.09710   2.10922   2.11002   2.12014   2.12255
 Alpha virt. eigenvalues --    2.12366   2.13206   2.14481   2.15324   2.15367
 Alpha virt. eigenvalues --    2.16198   2.17815   2.18134   2.18610   2.19774
 Alpha virt. eigenvalues --    2.20730   2.21726   2.21847   2.22770   2.23559
 Alpha virt. eigenvalues --    2.23861   2.24933   2.26184   2.26559   2.27025
 Alpha virt. eigenvalues --    2.28993   2.29576   2.30072   2.30441   2.31206
 Alpha virt. eigenvalues --    2.33982   2.34334   2.34644   2.34707   2.35607
 Alpha virt. eigenvalues --    2.36228   2.37491   2.38294   2.38821   2.40365
 Alpha virt. eigenvalues --    2.40929   2.41679   2.42221   2.44039   2.44975
 Alpha virt. eigenvalues --    2.45812   2.46161   2.47047   2.47120   2.50129
 Alpha virt. eigenvalues --    2.50983   2.52802   2.54479   2.54737   2.55451
 Alpha virt. eigenvalues --    2.56399   2.56769   2.57588   2.58609   2.60472
 Alpha virt. eigenvalues --    2.62361   2.63207   2.64479   2.65221   2.65717
 Alpha virt. eigenvalues --    2.67369   2.69114   2.70445   2.70916   2.71121
 Alpha virt. eigenvalues --    2.72280   2.73018   2.74335   2.74922   2.75792
 Alpha virt. eigenvalues --    2.76505   2.77941   2.78504   2.78955   2.79439
 Alpha virt. eigenvalues --    2.81272   2.81415   2.83516   2.84143   2.86581
 Alpha virt. eigenvalues --    2.87839   2.89899   2.90591   2.93362   2.95127
 Alpha virt. eigenvalues --    2.96337   2.97560   2.98241   2.99621   3.01449
 Alpha virt. eigenvalues --    3.03086   3.04298   3.04626   3.06022   3.06372
 Alpha virt. eigenvalues --    3.09765   3.10050   3.11296   3.13925   3.15512
 Alpha virt. eigenvalues --    3.16648   3.19651   3.22172   3.29495   3.29893
 Alpha virt. eigenvalues --    3.34500   3.35965   3.38655   3.40444   3.41033
 Alpha virt. eigenvalues --    3.42277   3.42870   3.53161   3.55673   3.57784
 Alpha virt. eigenvalues --    3.60036   4.39997   4.40804   4.44600   4.46746
 Alpha virt. eigenvalues --    4.48531   4.51528   4.55075   4.57805   4.61635
 Alpha virt. eigenvalues --    4.63847   4.67125   4.67219   4.68460   4.71022
 Alpha virt. eigenvalues --    4.71749   4.76180   4.78413   4.82744   4.86098
 Alpha virt. eigenvalues --    4.87881   4.88010   4.93702   4.95109   4.98611
 Alpha virt. eigenvalues --    5.00499   5.11828   5.21819   5.25863
          Condensed to atoms (all electrons):
 Mulliken atomic charges:
              1
     1  C   -0.279677
     2  N   -0.783389
     3  C    0.821936
     4  O   -0.628977
     5  C    0.102328
     6  C   -0.472716
     7  C   -0.334529
     8  C   -0.311644
     9  C   -0.372584
    10  C   -0.180692
    11  C   -0.177422
    12  C   -0.352386
    13  C   -0.319798
    14  C   -0.330353
    15  C    0.106048
    16  C   -0.511957
    17  N   -0.789204
    18  C    0.767274
    19  C   -0.594192
    20  O   -0.613206
    21  C    0.801328
    22  O   -0.635996
    23  N   -0.798218
    24  C   -0.275116
    25  N   -0.843094
    26  C    0.744501
    27  C   -0.588725
    28  O   -0.591803
    29  H    0.187282
    30  H    0.197478
    31  H    0.163028
    32  H    0.391674
    33  H    0.198149
    34  H    0.144502
    35  H    0.212749
    36  H    0.162071
    37  H    0.182724
    38  H    0.165521
    39  H    0.179198
    40  H    0.212847
    41  H    0.170426
    42  H    0.181312
    43  H    0.170861
    44  H    0.175744
    45  H    0.169364
    46  H    0.188719
    47  H    0.167303
    48  H    0.168673
    49  H    0.186619
    50  H    0.184618
    51  H    0.152451
    52  H    0.224452
    53  H    0.382336
    54  H    0.211494
    55  H    0.209139
    56  H    0.176881
    57  H    0.396515
    58  H    0.165258
    59  H    0.196580
    60  H    0.185665
    61  H    0.382873
    62  H    0.218818
    63  H    0.177436
    64  H    0.201501
 Sum of Mulliken atomic charges =   0.00000
 Mulliken charges with hydrogens summed into heavy atoms:
              1
     1  C    0.268112
     2  N   -0.391714
     3  C    0.821936
     4  O   -0.628977
     5  C    0.102328
     6  C    0.082683
     7  C    0.010266
     8  C    0.033075
     9  C    0.010688
    10  C    0.000619
    11  C   -0.006561
    12  C   -0.007278
    13  C    0.036225
    14  C    0.024939
    15  C    0.106048
    16  C    0.049564
    17  N   -0.406868
    18  C    0.767274
    19  C    0.003323
    20  O   -0.613206
    21  C    0.801328
    22  O   -0.635996
    23  N   -0.401703
    24  C    0.272387
    25  N   -0.460221
    26  C    0.744501
    27  C    0.009031
    28  O   -0.591803
 Sum of Mulliken charges with hydrogens summed into heavy atoms =   0.00000
 Electronic spatial extent (au):  <R**2>=          23511.8059
 Charge=              0.0000 electrons
 Dipole moment (field-independent basis, Debye):
    X=             -3.3568    Y=             -0.7841    Z=             -5.6301  Tot=              6.6016
 Quadrupole moment (field-independent basis, Debye-Ang):
   XX=           -208.3617   YY=           -157.3207   ZZ=           -173.0403
   XY=              0.8881   XZ=             33.9775   YZ=              9.6521
 Traceless Quadrupole moment (field-independent basis, Debye-Ang):
   XX=            -28.7875   YY=             22.2535   ZZ=              6.5339
   XY=              0.8881   XZ=             33.9775   YZ=              9.6521
 Octapole moment (field-independent basis, Debye-Ang**2):
  XXX=           -295.4320  YYY=            -14.1982  ZZZ=            -13.5648  XYY=             19.6741
  XXY=            -11.1982  XXZ=           -261.0951  XZZ=             15.2559  YZZ=            -10.1195
  YYZ=              5.3967  XYZ=             64.7507
 Hexadecapole moment (field-independent basis, Debye-Ang**3):
 XXXX=         -29604.5907 YYYY=          -2312.6704 ZZZZ=          -1333.7996 XXXY=           -127.9685
 XXXZ=           1201.0079 YYYX=            126.9463 YYYZ=             25.5332 ZZZX=            118.3818
 ZZZY=              7.9551 XXYY=          -4460.5840 XXZZ=          -4714.7194 YYZZ=           -592.9786
 XXYZ=            490.0218 YYXZ=            -28.9654 ZZXY=             34.8048
 N-N= 2.660319671977D+03 E-N=-8.352471508966D+03  KE= 1.294017775151D+03
 1\1\GINC-MOSURA\SP\RHF\6-31G(d)\C20H36N4O4\MARIE\05-Dec-2019\0\\#SP HF
 /6-31G* Geom=(ModRedundant)\\paramfit run\\0,1\C,0,0.,0.,0.\N,0,1.4481
 87,0.,0.\C,0,2.1232,0.47592,1.072365\O,0,1.590179,0.696732,2.124447\C,
 0,3.650505,0.594143,0.921539\C,0,4.198902,1.549248,1.986845\C,0,4.3077
 51,-0.809116,1.023981\C,0,4.133566,-1.622781,2.319066\C,0,2.832729,-2.
 433298,2.484965\C,0,2.579342,-3.423586,1.372579\C,0,2.834093,-4.721989
 ,1.375535\C,0,3.442731,-5.535663,2.492337\C,0,2.42774,-6.370218,3.2941
 33\C,0,1.693892,-7.402618,2.427801\C,0,0.774274,-8.428536,3.139447\C,0
 ,-0.452068,-7.665975,3.666739\N,0,0.345445,-9.421801,2.164224\C,0,-0.3
 57182,-10.530846,2.537578\C,0,-0.398337,-11.636211,1.507394\O,0,-0.903
 685,-10.628107,3.601071\C,0,1.594655,-9.147691,4.234215\O,0,2.290763,-
 10.085605,3.951941\N,0,1.573387,-8.618148,5.476436\C,0,2.278834,-9.271
 001,6.560101\N,0,3.997412,1.070275,-0.425452\C,0,3.587019,2.267163,-0.
 934086\C,0,4.328148,2.727659,-2.172145\O,0,2.697134,2.905425,-0.447397
 \H,0,-0.403259,1.006147,0.\H,0,-0.36496,-0.516002,0.875939\H,0,-0.3456
 58,-0.522086,-0.883346\H,0,1.904244,0.070913,-0.879357\H,0,3.932135,1.
 22176,2.980082\H,0,5.28092,1.595925,1.9075\H,0,3.792711,2.540594,1.848
 395\H,0,5.374584,-0.64325,0.891407\H,0,3.984642,-1.403324,0.174983\H,0
 ,4.961565,-2.324757,2.354635\H,0,4.250121,-0.975721,3.182259\H,0,1.985
 724,-1.764045,2.562723\H,0,2.895638,-2.94811,3.437249\H,0,2.135502,-3.
 009181,0.481856\H,0,2.579482,-5.276386,0.485828\H,0,3.971519,-4.889909
 ,3.182881\H,0,4.191817,-6.202016,2.066382\H,0,2.965623,-6.85691,4.1029
 52\H,0,1.714584,-5.707921,3.766998\H,0,2.42081,-7.979938,1.860503\H,0,
 1.083167,-6.875737,1.704087\H,0,-1.01454,-7.286697,2.821543\H,0,-0.155
 715,-6.813244,4.268741\H,0,-1.102099,-8.306403,4.243844\H,0,0.964981,-
 9.560635,1.398971\H,0,-1.24231,-12.277583,1.710896\H,0,0.512322,-12.22
 1641,1.591628\H,0,-0.465142,-11.249602,0.49623\H,0,0.823503,-8.015326,
 5.720546\H,0,2.239553,-8.631971,7.432466\H,0,3.311204,-9.425438,6.2826
 38\H,0,1.841358,-10.233991,6.80304\H,0,4.82812,0.684785,-0.816437\H,0,
 3.710173,3.434604,-2.706288\H,0,4.588171,1.902533,-2.825678\H,0,5.2447
 71,3.226201,-1.873716\\Version=EM64L-G09RevA.02\State=1-A\HF=-1295.620
 7058\RMSD=6.150e-09\Dipole=1.6537599,0.4235855,-1.9573915\Quadrupole=9
 .3776332,-34.0777063,24.7000731,11.4539628,-2.0495357,-1.6500951\PG=C0
 1 [X(C20H36N4O4)]\\@


 It takes a long time to grow an old friend.
                            -- John Leonard
 Job cpu time:  0 days  0 hours  4 minutes 54.6 seconds.
 File lengths (MBytes):  RWF=    132 Int=      0 D2E=      0 Chk=     10 Scr=      1
 Normal termination of Gaussian 09 at Thu Dec  5 19:25:22 2019.
