 Entering Gaussian System, Link 0=g09
 Input=CHI9_-100.gau
 Output=CHI9_-100.log
 Initial command:
 /home/marie/Utilities//g09/l1.exe /tmp/g09/Gau-15733.inp -scrdir=/tmp/g09/
 Entering Link 1 = /home/marie/Utilities//g09/l1.exe PID=     15735.
  
 Copyright (c) 1988,1990,1992,1993,1995,1998,2003,2009, Gaussian, Inc.
                  All Rights Reserved.
  
 This is part of the Gaussian(R) 09 program.  It is based on
 the Gaussian(R) 03 system (copyright 2003, Gaussian, Inc.),
 the Gaussian(R) 98 system (copyright 1998, Gaussian, Inc.),
 the Gaussian(R) 94 system (copyright 1995, Gaussian, Inc.),
 the Gaussian 92(TM) system (copyright 1992, Gaussian, Inc.),
 the Gaussian 90(TM) system (copyright 1990, Gaussian, Inc.),
 the Gaussian 88(TM) system (copyright 1988, Gaussian, Inc.),
 the Gaussian 86(TM) system (copyright 1986, Carnegie Mellon
 University), and the Gaussian 82(TM) system (copyright 1983,
 Carnegie Mellon University). Gaussian is a federally registered
 trademark of Gaussian, Inc.
  
 This software contains proprietary and confidential information,
 including trade secrets, belonging to Gaussian, Inc.
  
 This software is provided under written license and may be
 used, copied, transmitted, or stored only in accord with that
 written license.
  
 The following legend is applicable only to US Government
 contracts under FAR:
  
                    RESTRICTED RIGHTS LEGEND
  
 Use, reproduction and disclosure by the US Government is
 subject to restrictions as set forth in subparagraphs (a)
 and (c) of the Commercial Computer Software - Restricted
 Rights clause in FAR 52.227-19.
  
 Gaussian, Inc.
 340 Quinnipiac St., Bldg. 40, Wallingford CT 06492
  
  
 ---------------------------------------------------------------
 Warning -- This program may not be used in any manner that
 competes with the business of Gaussian, Inc. or will provide
 assistance to any competitor of Gaussian, Inc.  The licensee
 of this program is prohibited from giving any competitor of
 Gaussian, Inc. access to this program.  By using this program,
 the user acknowledges that Gaussian, Inc. is engaged in the
 business of creating and licensing software in the field of
 computational chemistry and represents and warrants to the
 licensee that it is not a competitor of Gaussian, Inc. and that
 it will not use this program in any manner prohibited above.
 ---------------------------------------------------------------
  

 Cite this work as:
 Gaussian 09, Revision A.02,
 M. J. Frisch, G. W. Trucks, H. B. Schlegel, G. E. Scuseria, 
 M. A. Robb, J. R. Cheeseman, G. Scalmani, V. Barone, B. Mennucci, 
 G. A. Petersson, H. Nakatsuji, M. Caricato, X. Li, H. P. Hratchian, 
 A. F. Izmaylov, J. Bloino, G. Zheng, J. L. Sonnenberg, M. Hada, 
 M. Ehara, K. Toyota, R. Fukuda, J. Hasegawa, M. Ishida, T. Nakajima, 
 Y. Honda, O. Kitao, H. Nakai, T. Vreven, J. A. Montgomery, Jr., 
 J. E. Peralta, F. Ogliaro, M. Bearpark, J. J. Heyd, E. Brothers, 
 K. N. Kudin, V. N. Staroverov, R. Kobayashi, J. Normand, 
 K. Raghavachari, A. Rendell, J. C. Burant, S. S. Iyengar, J. Tomasi, 
 M. Cossi, N. Rega, J. M. Millam, M. Klene, J. E. Knox, J. B. Cross, 
 V. Bakken, C. Adamo, J. Jaramillo, R. Gomperts, R. E. Stratmann, 
 O. Yazyev, A. J. Austin, R. Cammi, C. Pomelli, J. W. Ochterski, 
 R. L. Martin, K. Morokuma, V. G. Zakrzewski, G. A. Voth, 
 P. Salvador, J. J. Dannenberg, S. Dapprich, A. D. Daniels, 
 O. Farkas, J. B. Foresman, J. V. Ortiz, J. Cioslowski, 
 and D. J. Fox, Gaussian, Inc., Wallingford CT, 2009.
 
 ******************************************
 Gaussian 09:  EM64L-G09RevA.02 11-Jun-2009
                 5-Dec-2019 
 ******************************************
 %chk=CHI9_-100
 %NoSave
 ---------------------------------
 #SP HF/6-31G* Geom=(ModRedundant)
 ---------------------------------
 1/18=120,38=1/1;
 2/12=2,17=6,18=5,40=1/2;
 3/5=1,6=6,7=1,11=9,16=1,25=1,30=1/1,2,3;
 4//1;
 5/5=2,38=5/2;
 6/7=2,8=2,9=2,10=2,28=1/1;
 99/5=1,9=1/99;
 ------------
 paramfit run
 ------------
 Symbolic Z-matrix:
 Charge =  0 Multiplicity = 1
 C-CT--0.3208          0.        0.        0. 
 N-N--0.5622           1.44819   0.        0. 
 C-C-0.8053            2.1232    0.47592   1.07237 
 O-O--0.6151           1.59018   0.69673   2.12445 
 C-CX-0.0839           3.65051   0.59414   0.92154 
 C-CU--0.3230          4.1989    1.54925   1.98685 
 C-CU--0.0657          4.30775  -0.80912   1.02398 
 C-CU--0.0109          4.13357  -1.62278   2.31907 
 C-CU-0.0816           2.83273  -2.4333    2.48497 
 C-CM--0.2354          2.57934  -3.42359   1.37258 
 C-CM--0.2653          2.83409  -4.72199   1.37554 
 C-CU-0.1214           3.44273  -5.53566   2.49234 
 C-CU--0.0354          2.42774  -6.37022   3.29413 
 C-CU--0.0984          1.69389  -7.40262   2.4278 
 C-CU-0.1300           0.77427  -8.42854   3.13945 
 C-CU--0.3561          1.55629  -9.74636   3.26291 
 N-N--0.7186           0.45937  -7.92491   4.46938 
 C-C-0.8537           -0.44996  -8.55079   5.27216 
 C-CT--0.3868         -0.94889  -7.72437   6.4353 
 O-O--0.6323          -0.82903  -9.67193   5.07597 
 C-C-0.7903           -0.54392  -8.54406   2.34086 
 O-O--0.6136          -1.42862  -7.74942   2.51348 
 N-N--0.5650          -0.61157  -9.4969    1.38614 
 C-CT--0.3231         -1.83517  -9.69262   0.63601 
 N-N--0.7191           3.99741   1.07028  -0.42545 
 C-C-0.8539            3.58702   2.26716  -0.93409 
 C-CT--0.3903          4.32815   2.72766  -2.17214 
 O-O--0.6290           2.69713   2.90543  -0.4474 
 H-H1-0.1459          -0.40326   1.00615   0. 
 H-H1-0.1459          -0.36496  -0.516     0.87594 
 H-H1-0.1459          -0.34566  -0.52209  -0.88335 
 H-H-0.3572            1.90424   0.07091  -0.87936 
 H-HC-0.0997           3.93214   1.22176   2.98008 
 H-HC-0.0997           5.28092   1.59593   1.9075 
 H-HC-0.0997           3.79271   2.54059   1.8484 
 H-HC-0.0347           5.37458  -0.64325   0.89141 
 H-HC-0.0347           3.98464  -1.40332   0.17498 
 H-HC-0.0243           4.96157  -2.32476   2.35464 
 H-HC-0.0243           4.25012  -0.97572   3.18226 
 H-HC-0.0171           1.98572  -1.76405   2.56272 
 H-HC-0.0171           2.89564  -2.94811   3.43725 
 H-HA-0.1313           2.1355   -3.00918   0.48186 
 H-HA-0.1359           2.57948  -5.27639   0.48583 
 H-HC-0.0092           3.97152  -4.88991   3.18288 
 H-HC-0.0092           4.19182  -6.20202   2.06638 
 H-HC-0.0318           2.96562  -6.85691   4.10295 
 H-HC-0.0318           1.71458  -5.70792   3.767 
 H-HC-0.0435           2.42081  -7.97994   1.8605 
 H-HC-0.0435           1.08317  -6.87574   1.70409 
 H-HC-0.1066           2.40263  -9.5872    3.92091 
 H-HC-0.1066           1.94728  -10.06294   2.30151 
 H-HC-0.1066           0.9475   -10.53364   3.68161 
 H-H-0.3529            0.48799  -6.93575   4.56665 
 H-HC-0.1047          -1.34399  -8.3835    7.19327 
 H-HC-0.1047          -1.74841  -7.07927   6.08352 
 H-HC-0.1047          -0.16781  -7.10247   6.85901 
 H-H-0.3615            0.01713  -10.26331   1.4378 
 H-H1-0.1469          -1.64636  -10.40979  -0.152 
 H-H1-0.1469          -2.14578  -8.75725   0.19417 
 H-H1-0.1469          -2.63969  -10.05809   1.26604 
 H-H-0.3570            4.82812   0.68479  -0.81644 
 H-HC-0.1060           3.71017   3.4346   -2.70629 
 H-HC-0.1060           4.58817   1.90253  -2.82568 
 H-HC-0.1060           5.24477   3.2262   -1.87372 
 
 The following ModRedundant input section has been read:
 D    *   14   15    * F                                                       
 Stoichiometry    C20H36N4O4
 Framework group  C1[X(C20H36N4O4)]
 Deg. of freedom   186
 Full point group                 C1      NOp   1
 Largest Abelian subgroup         C1      NOp   1
 Largest concise Abelian subgroup C1      NOp   1
                         Standard orientation:                         
 ---------------------------------------------------------------------
 Center     Atomic      Atomic             Coordinates (Angstroms)
 Number     Number       Type             X           Y           Z
 ---------------------------------------------------------------------
      1          6    20001001        3.516230    2.305064    1.911549
      2          7    20001014        3.960656    1.440255    0.838313
      3          6    20001002        4.277770    0.150298    1.098233
      4          8    20001024        3.999668   -0.386375    2.134759
      5          6    90000001        4.898342   -0.648392   -0.062099
      6          6    90000002        5.611754   -1.886517    0.491012
      7          6    90000002        3.801311   -1.036641   -1.090393
      8          6    90000002        2.625914   -1.918423   -0.631550
      9          6    90000002        1.444704   -1.224517    0.075470
     10          6    20001004        0.804085   -0.122749   -0.735698
     11          6    20001004       -0.292005   -0.197515   -1.473094
     12          6    90000002       -1.173952   -1.404187   -1.687250
     13          6    90000002       -2.478997   -1.388070   -0.871062
     14          6    90000002       -3.378574   -0.193586   -1.215857
     15          6    90000002       -4.800376   -0.150573   -0.598384
     16          6    90000002       -5.788183   -0.635387   -1.671996
     17          7    20001014       -4.838903   -1.057079    0.541044
     18          6    20001002       -5.923237   -1.117660    1.367850
     19          6    20001001       -5.676735   -1.800699    2.693557
     20          8    20001024       -6.994193   -0.665543    1.071565
     21          6    20001002       -5.070909    1.282382   -0.086352
     22          8    20001024       -4.675812    1.623845    0.995882
     23          7    20001014       -5.667748    2.144840   -0.937192
     24          6    20001001       -5.996198    3.487479   -0.504011
     25          7    20001014        5.837207    0.192484   -0.818995
     26          6    20001002        6.944753    0.770850   -0.272636
     27          6    20001001        7.957948    1.290150   -1.271576
     28          8    20001024        7.103177    0.873832    0.910764
     29          1    20001035        4.301746    2.484096    2.636711
     30          1    20001035        2.676416    1.854147    2.419594
     31          1    20001035        3.202040    3.250006    1.486432
     32          1    20001029        4.427212    1.866836    0.072389
     33          1    20001034        4.937421   -2.501458    1.067254
     34          1    20001034        6.009678   -2.472071   -0.332408
     35          1    20001034        6.424327   -1.594099    1.139968
     36          1    20001034        4.318179   -1.577875   -1.879782
     37          1    20001034        3.418610   -0.128207   -1.544890
     38          1    20001034        2.235008   -2.398219   -1.524078
     39          1    20001034        2.988752   -2.718108    0.005809
     40          1    20001034        1.766373   -0.821996    1.027242
     41          1    20001034        0.714481   -1.992074    0.306693
     42          1    20001033        1.308289    0.829219   -0.695097
     43          1    20001033       -0.605555    0.700128   -1.982688
     44          1    20001034       -0.634245   -2.311886   -1.445866
     45          1    20001034       -1.419103   -1.469937   -2.746576
     46          1    20001034       -2.995217   -2.326255   -1.054643
     47          1    20001034       -2.240490   -1.381045    0.184350
     48          1    20001034       -3.507872   -0.138524   -2.294646
     49          1    20001034       -2.873795    0.717566   -0.916941
     50          1    20001034       -5.581053   -1.676807   -1.889069
     51          1    20001034       -5.667287   -0.080542   -2.596611
     52          1    20001034       -6.811479   -0.558354   -1.336331
     53          1    20001029       -3.965241   -1.212701    0.989606
     54          1    20001034       -6.619921   -2.130484    3.101853
     55          1    20001034       -5.234092   -1.081528    3.376188
     56          1    20001034       -5.001498   -2.644190    2.598896
     57          1    20001029       -6.182850    1.775143   -1.700934
     58          1    20001035       -6.351128    4.048982   -1.358212
     59          1    20001035       -5.114308    3.968901   -0.107616
     60          1    20001035       -6.761450    3.486478    0.265496
     61          1    20001029        5.860486    0.032779   -1.801593
     62          1    20001034        8.566636    2.042963   -0.792259
     63          1    20001034        7.487165    1.708211   -2.154264
     64          1    20001034        8.600696    0.473488   -1.584211
 ---------------------------------------------------------------------
 Rotational constants (GHZ):      0.3572133      0.0492934      0.0483387
 Standard basis: 6-31G(d) (6D, 7F)
 There are   492 symmetry adapted basis functions of A   symmetry.
 Integral buffers will be    131072 words long.
 Raffenetti 1 integral format.
 Two-electron integral symmetry is turned on.
   492 basis functions,   928 primitive gaussians,   492 cartesian basis functions
   108 alpha electrons      108 beta electrons
       nuclear repulsion energy      2674.1477476016 Hartrees.
 NAtoms=   64 NActive=   64 NUniq=   64 SFac= 7.50D-01 NAtFMM=   80 NAOKFM=F Big=T
 One-electron integrals computed using PRISM.
 NBasis=   492 RedAO= T  NBF=   492
 NBsUse=   492 1.00D-06 NBFU=   492
 Harris functional with IExCor=  205 diagonalized for initial guess.
 ExpMin= 1.61D-01 ExpMax= 5.48D+03 ExpMxC= 8.25D+02 IAcc=1 IRadAn=         1 AccDes= 0.00D+00
 HarFok:  IExCor=  205 AccDes= 0.00D+00 IRadAn=         1 IDoV= 1
 ScaDFX=  1.000000  1.000000  1.000000  1.000000
 FoFCou: FMM=F IPFlag=           0 FMFlag=      100000 FMFlg1=           1
         NFxFlg=           0 DoJE=T BraDBF=F KetDBF=T FulRan=T
         Omega=  0.000000  0.000000  1.000000  0.000000  0.000000 ICntrl=     500 IOpCl=  0
         NMat0=    1 NMatS0=    1 NMatT0=    0 NMatD0=    1 NMtDS0=    0 NMtDT0=    0
         I1Cent=           4 NGrid=           0.
 Petite list used in FoFCou.
 Initial guess orbital symmetries:
       Occupied  (A) (A) (A) (A) (A) (A) (A) (A) (A) (A) (A) (A)
                 (A) (A) (A) (A) (A) (A) (A) (A) (A) (A) (A) (A)
                 (A) (A) (A) (A) (A) (A) (A) (A) (A) (A) (A) (A)
                 (A) (A) (A) (A) (A) (A) (A) (A) (A) (A) (A) (A)
                 (A) (A) (A) (A) (A) (A) (A) (A) (A) (A) (A) (A)
                 (A) (A) (A) (A) (A) (A) (A) (A) (A) (A) (A) (A)
                 (A) (A) (A) (A) (A) (A) (A) (A) (A) (A) (A) (A)
                 (A) (A) (A) (A) (A) (A) (A) (A) (A) (A) (A) (A)
                 (A) (A) (A) (A) (A) (A) (A) (A) (A) (A) (A) (A)
       Virtual   (A) (A) (A) (A) (A) (A) (A) (A) (A) (A) (A) (A)
                 (A) (A) (A) (A) (A) (A) (A) (A) (A) (A) (A) (A)
                 (A) (A) (A) (A) (A) (A) (A) (A) (A) (A) (A) (A)
                 (A) (A) (A) (A) (A) (A) (A) (A) (A) (A) (A) (A)
                 (A) (A) (A) (A) (A) (A) (A) (A) (A) (A) (A) (A)
                 (A) (A) (A) (A) (A) (A) (A) (A) (A) (A) (A) (A)
                 (A) (A) (A) (A) (A) (A) (A) (A) (A) (A) (A) (A)
                 (A) (A) (A) (A) (A) (A) (A) (A) (A) (A) (A) (A)
                 (A) (A) (A) (A) (A) (A) (A) (A) (A) (A) (A) (A)
                 (A) (A) (A) (A) (A) (A) (A) (A) (A) (A) (A) (A)
                 (A) (A) (A) (A) (A) (A) (A) (A) (A) (A) (A) (A)
                 (A) (A) (A) (A) (A) (A) (A) (A) (A) (A) (A) (A)
                 (A) (A) (A) (A) (A) (A) (A) (A) (A) (A) (A) (A)
                 (A) (A) (A) (A) (A) (A) (A) (A) (A) (A) (A) (A)
                 (A) (A) (A) (A) (A) (A) (A) (A) (A) (A) (A) (A)
                 (A) (A) (A) (A) (A) (A) (A) (A) (A) (A) (A) (A)
                 (A) (A) (A) (A) (A) (A) (A) (A) (A) (A) (A) (A)
                 (A) (A) (A) (A) (A) (A) (A) (A) (A) (A) (A) (A)
                 (A) (A) (A) (A) (A) (A) (A) (A) (A) (A) (A) (A)
                 (A) (A) (A) (A) (A) (A) (A) (A) (A) (A) (A) (A)
                 (A) (A) (A) (A) (A) (A) (A) (A) (A) (A) (A) (A)
                 (A) (A) (A) (A) (A) (A) (A) (A) (A) (A) (A) (A)
                 (A) (A) (A) (A) (A) (A) (A) (A) (A) (A) (A) (A)
                 (A) (A) (A) (A) (A) (A) (A) (A) (A) (A) (A) (A)
                 (A) (A) (A) (A) (A) (A) (A) (A) (A) (A) (A) (A)
                 (A) (A) (A) (A) (A) (A) (A) (A) (A) (A) (A) (A)
                 (A) (A) (A) (A) (A) (A) (A) (A) (A) (A) (A) (A)
                 (A) (A) (A) (A) (A) (A) (A) (A) (A) (A) (A) (A)
                 (A) (A) (A) (A) (A) (A) (A) (A) (A) (A) (A) (A)
                 (A) (A) (A) (A) (A) (A) (A) (A) (A) (A) (A) (A)
                 (A) (A) (A) (A) (A) (A) (A) (A) (A) (A) (A) (A)
                 (A) (A) (A) (A) (A) (A) (A) (A) (A) (A) (A) (A)
 The electronic state of the initial guess is 1-A.
 Requested convergence on RMS density matrix=1.00D-08 within 128 cycles.
 Requested convergence on MAX density matrix=1.00D-06.
 Requested convergence on             energy=1.00D-06.
 No special actions if energy rises.
 Integral accuracy reduced to 1.0D-05 until final iterations.
 Initial convergence to 1.0D-05 achieved.  Increase integral accuracy.
 SCF Done:  E(RHF) =  -1295.61392188     A.U. after   14 cycles
             Convg  =    0.6262D-08             -V/T =  2.0012

 **********************************************************************

            Population analysis using the SCF density.

 **********************************************************************

 Orbital symmetries:
       Occupied  (A) (A) (A) (A) (A) (A) (A) (A) (A) (A) (A) (A)
                 (A) (A) (A) (A) (A) (A) (A) (A) (A) (A) (A) (A)
                 (A) (A) (A) (A) (A) (A) (A) (A) (A) (A) (A) (A)
                 (A) (A) (A) (A) (A) (A) (A) (A) (A) (A) (A) (A)
                 (A) (A) (A) (A) (A) (A) (A) (A) (A) (A) (A) (A)
                 (A) (A) (A) (A) (A) (A) (A) (A) (A) (A) (A) (A)
                 (A) (A) (A) (A) (A) (A) (A) (A) (A) (A) (A) (A)
                 (A) (A) (A) (A) (A) (A) (A) (A) (A) (A) (A) (A)
                 (A) (A) (A) (A) (A) (A) (A) (A) (A) (A) (A) (A)
       Virtual   (A) (A) (A) (A) (A) (A) (A) (A) (A) (A) (A) (A)
                 (A) (A) (A) (A) (A) (A) (A) (A) (A) (A) (A) (A)
                 (A) (A) (A) (A) (A) (A) (A) (A) (A) (A) (A) (A)
                 (A) (A) (A) (A) (A) (A) (A) (A) (A) (A) (A) (A)
                 (A) (A) (A) (A) (A) (A) (A) (A) (A) (A) (A) (A)
                 (A) (A) (A) (A) (A) (A) (A) (A) (A) (A) (A) (A)
                 (A) (A) (A) (A) (A) (A) (A) (A) (A) (A) (A) (A)
                 (A) (A) (A) (A) (A) (A) (A) (A) (A) (A) (A) (A)
                 (A) (A) (A) (A) (A) (A) (A) (A) (A) (A) (A) (A)
                 (A) (A) (A) (A) (A) (A) (A) (A) (A) (A) (A) (A)
                 (A) (A) (A) (A) (A) (A) (A) (A) (A) (A) (A) (A)
                 (A) (A) (A) (A) (A) (A) (A) (A) (A) (A) (A) (A)
                 (A) (A) (A) (A) (A) (A) (A) (A) (A) (A) (A) (A)
                 (A) (A) (A) (A) (A) (A) (A) (A) (A) (A) (A) (A)
                 (A) (A) (A) (A) (A) (A) (A) (A) (A) (A) (A) (A)
                 (A) (A) (A) (A) (A) (A) (A) (A) (A) (A) (A) (A)
                 (A) (A) (A) (A) (A) (A) (A) (A) (A) (A) (A) (A)
                 (A) (A) (A) (A) (A) (A) (A) (A) (A) (A) (A) (A)
                 (A) (A) (A) (A) (A) (A) (A) (A) (A) (A) (A) (A)
                 (A) (A) (A) (A) (A) (A) (A) (A) (A) (A) (A) (A)
                 (A) (A) (A) (A) (A) (A) (A) (A) (A) (A) (A) (A)
                 (A) (A) (A) (A) (A) (A) (A) (A) (A) (A) (A) (A)
                 (A) (A) (A) (A) (A) (A) (A) (A) (A) (A) (A) (A)
                 (A) (A) (A) (A) (A) (A) (A) (A) (A) (A) (A) (A)
                 (A) (A) (A) (A) (A) (A) (A) (A) (A) (A) (A) (A)
                 (A) (A) (A) (A) (A) (A) (A) (A) (A) (A) (A) (A)
                 (A) (A) (A) (A) (A) (A) (A) (A) (A) (A) (A) (A)
                 (A) (A) (A) (A) (A) (A) (A) (A) (A) (A) (A) (A)
                 (A) (A) (A) (A) (A) (A) (A) (A) (A) (A) (A) (A)
                 (A) (A) (A) (A) (A) (A) (A) (A) (A) (A) (A) (A)
                 (A) (A) (A) (A) (A) (A) (A) (A) (A) (A) (A) (A)
                 (A) (A) (A) (A) (A) (A) (A) (A) (A) (A) (A) (A)
 The electronic state is 1-A.
 Alpha  occ. eigenvalues --  -20.53665 -20.51902 -20.51871 -20.51554 -15.59638
 Alpha  occ. eigenvalues --  -15.57976 -15.57513 -15.57297 -11.35985 -11.34068
 Alpha  occ. eigenvalues --  -11.33881 -11.33692 -11.29081 -11.28448 -11.25100
 Alpha  occ. eigenvalues --  -11.24790 -11.24366 -11.24099 -11.23317 -11.23228
 Alpha  occ. eigenvalues --  -11.22981 -11.22861 -11.22347 -11.22325 -11.22149
 Alpha  occ. eigenvalues --  -11.21816 -11.21731 -11.20921  -1.40602  -1.39265
 Alpha  occ. eigenvalues --   -1.38728  -1.37994  -1.25461  -1.23501  -1.22653
 Alpha  occ. eigenvalues --   -1.22062  -1.10957  -1.09373  -1.07232  -1.04391
 Alpha  occ. eigenvalues --   -1.01324  -0.99331  -0.98703  -0.95471  -0.95255
 Alpha  occ. eigenvalues --   -0.94627  -0.92451  -0.87676  -0.85991  -0.82773
 Alpha  occ. eigenvalues --   -0.81535  -0.79438  -0.78796  -0.77173  -0.76494
 Alpha  occ. eigenvalues --   -0.71836  -0.71543  -0.71200  -0.68991  -0.68172
 Alpha  occ. eigenvalues --   -0.66673  -0.65870  -0.64936  -0.64130  -0.63304
 Alpha  occ. eigenvalues --   -0.62940  -0.62554  -0.62259  -0.61293  -0.61054
 Alpha  occ. eigenvalues --   -0.60754  -0.59898  -0.59222  -0.58775  -0.58473
 Alpha  occ. eigenvalues --   -0.58266  -0.57638  -0.57209  -0.56610  -0.55979
 Alpha  occ. eigenvalues --   -0.55359  -0.55064  -0.54778  -0.54454  -0.53958
 Alpha  occ. eigenvalues --   -0.53226  -0.52921  -0.52808  -0.52160  -0.51139
 Alpha  occ. eigenvalues --   -0.50850  -0.50456  -0.49779  -0.49343  -0.48726
 Alpha  occ. eigenvalues --   -0.48538  -0.47068  -0.46766  -0.44766  -0.42897
 Alpha  occ. eigenvalues --   -0.41978  -0.41481  -0.40891  -0.39310  -0.38747
 Alpha  occ. eigenvalues --   -0.38306  -0.38274  -0.34677
 Alpha virt. eigenvalues --    0.17269   0.18784   0.19842   0.19960   0.20196
 Alpha virt. eigenvalues --    0.21685   0.21966   0.23044   0.23283   0.23860
 Alpha virt. eigenvalues --    0.24987   0.25333   0.26253   0.26803   0.27621
 Alpha virt. eigenvalues --    0.28051   0.28065   0.28426   0.29098   0.29225
 Alpha virt. eigenvalues --    0.29494   0.30170   0.30521   0.31223   0.31801
 Alpha virt. eigenvalues --    0.32078   0.32440   0.32671   0.33630   0.33778
 Alpha virt. eigenvalues --    0.33940   0.34227   0.34682   0.34949   0.35352
 Alpha virt. eigenvalues --    0.35533   0.35822   0.36219   0.36902   0.37534
 Alpha virt. eigenvalues --    0.37823   0.38859   0.38912   0.39231   0.40076
 Alpha virt. eigenvalues --    0.40266   0.41075   0.41742   0.42206   0.42956
 Alpha virt. eigenvalues --    0.44842   0.45157   0.45478   0.46782   0.46920
 Alpha virt. eigenvalues --    0.48917   0.49553   0.51374   0.52297   0.52811
 Alpha virt. eigenvalues --    0.53457   0.55095   0.57373   0.58836   0.60156
 Alpha virt. eigenvalues --    0.61928   0.63133   0.63686   0.69089   0.69824
 Alpha virt. eigenvalues --    0.70848   0.71623   0.72346   0.73126   0.73607
 Alpha virt. eigenvalues --    0.74007   0.74640   0.75057   0.75640   0.76376
 Alpha virt. eigenvalues --    0.76663   0.76759   0.77743   0.78022   0.79231
 Alpha virt. eigenvalues --    0.79763   0.80462   0.80806   0.82040   0.82134
 Alpha virt. eigenvalues --    0.82684   0.83140   0.84681   0.85350   0.86719
 Alpha virt. eigenvalues --    0.87084   0.87596   0.88777   0.90363   0.90796
 Alpha virt. eigenvalues --    0.91293   0.92060   0.92989   0.93515   0.93965
 Alpha virt. eigenvalues --    0.94461   0.95956   0.96300   0.96771   0.97413
 Alpha virt. eigenvalues --    0.97888   0.98753   0.99165   0.99847   1.00130
 Alpha virt. eigenvalues --    1.01434   1.01799   1.02369   1.02828   1.03320
 Alpha virt. eigenvalues --    1.03922   1.04666   1.05333   1.05510   1.06829
 Alpha virt. eigenvalues --    1.07614   1.08082   1.10281   1.11021   1.11355
 Alpha virt. eigenvalues --    1.11777   1.11989   1.12356   1.13873   1.14102
 Alpha virt. eigenvalues --    1.14379   1.14646   1.15028   1.15604   1.15812
 Alpha virt. eigenvalues --    1.15942   1.16033   1.16491   1.17004   1.17893
 Alpha virt. eigenvalues --    1.18074   1.18332   1.18559   1.18905   1.19541
 Alpha virt. eigenvalues --    1.20057   1.20073   1.20484   1.21013   1.21594
 Alpha virt. eigenvalues --    1.21917   1.22485   1.22576   1.22648   1.23029
 Alpha virt. eigenvalues --    1.23573   1.23851   1.24117   1.24943   1.25596
 Alpha virt. eigenvalues --    1.25711   1.26883   1.27072   1.27759   1.28219
 Alpha virt. eigenvalues --    1.28782   1.30175   1.30734   1.31925   1.32816
 Alpha virt. eigenvalues --    1.33354   1.34583   1.35162   1.36207   1.36851
 Alpha virt. eigenvalues --    1.37812   1.38901   1.40962   1.41908   1.42577
 Alpha virt. eigenvalues --    1.43851   1.44004   1.46192   1.46638   1.48562
 Alpha virt. eigenvalues --    1.49819   1.50939   1.52496   1.54068   1.55022
 Alpha virt. eigenvalues --    1.56783   1.58791   1.59981   1.60659   1.61829
 Alpha virt. eigenvalues --    1.63381   1.64333   1.64559   1.66670   1.68315
 Alpha virt. eigenvalues --    1.69913   1.70773   1.71981   1.72402   1.72593
 Alpha virt. eigenvalues --    1.73788   1.74182   1.77556   1.78893   1.79751
 Alpha virt. eigenvalues --    1.81324   1.81607   1.84131   1.84821   1.87068
 Alpha virt. eigenvalues --    1.89621   1.89984   1.92033   1.93203   1.94450
 Alpha virt. eigenvalues --    1.96671   1.97225   1.98694   1.99692   2.01616
 Alpha virt. eigenvalues --    2.01944   2.04644   2.05959   2.07383   2.07836
 Alpha virt. eigenvalues --    2.08836   2.10557   2.11170   2.11454   2.12401
 Alpha virt. eigenvalues --    2.12866   2.13450   2.14123   2.15395   2.16068
 Alpha virt. eigenvalues --    2.16716   2.17940   2.18484   2.19183   2.20543
 Alpha virt. eigenvalues --    2.20934   2.21681   2.21996   2.23030   2.23478
 Alpha virt. eigenvalues --    2.25075   2.25220   2.26002   2.26630   2.27576
 Alpha virt. eigenvalues --    2.28039   2.29180   2.30072   2.31204   2.31551
 Alpha virt. eigenvalues --    2.34258   2.34447   2.34824   2.35612   2.36116
 Alpha virt. eigenvalues --    2.37336   2.38118   2.38719   2.38806   2.39980
 Alpha virt. eigenvalues --    2.40826   2.41283   2.42979   2.43584   2.44761
 Alpha virt. eigenvalues --    2.45198   2.46465   2.47033   2.49480   2.50097
 Alpha virt. eigenvalues --    2.50908   2.53324   2.54306   2.54660   2.56142
 Alpha virt. eigenvalues --    2.56791   2.56895   2.57373   2.58704   2.61427
 Alpha virt. eigenvalues --    2.62986   2.63810   2.64446   2.64929   2.65600
 Alpha virt. eigenvalues --    2.66711   2.69367   2.70237   2.70789   2.71415
 Alpha virt. eigenvalues --    2.72036   2.73603   2.74286   2.74683   2.76272
 Alpha virt. eigenvalues --    2.77419   2.78004   2.78674   2.79097   2.79661
 Alpha virt. eigenvalues --    2.81401   2.83554   2.83658   2.84727   2.86563
 Alpha virt. eigenvalues --    2.88067   2.90450   2.90852   2.92492   2.94501
 Alpha virt. eigenvalues --    2.96476   2.97333   2.98324   2.99047   3.02020
 Alpha virt. eigenvalues --    3.02383   3.04310   3.05162   3.06471   3.07392
 Alpha virt. eigenvalues --    3.09841   3.11271   3.11514   3.13933   3.15778
 Alpha virt. eigenvalues --    3.16549   3.18368   3.21898   3.29583   3.30232
 Alpha virt. eigenvalues --    3.34602   3.35829   3.38733   3.40560   3.40984
 Alpha virt. eigenvalues --    3.42222   3.42981   3.53266   3.55810   3.57889
 Alpha virt. eigenvalues --    3.60130   4.38657   4.40917   4.44706   4.46824
 Alpha virt. eigenvalues --    4.49354   4.51751   4.55245   4.58575   4.62455
 Alpha virt. eigenvalues --    4.62958   4.66291   4.67055   4.68542   4.69754
 Alpha virt. eigenvalues --    4.71293   4.77138   4.78359   4.81632   4.83271
 Alpha virt. eigenvalues --    4.87927   4.89096   4.94435   4.95445   4.98478
 Alpha virt. eigenvalues --    5.00348   5.11903   5.21892   5.27646
          Condensed to atoms (all electrons):
 Mulliken atomic charges:
              1
     1  C   -0.280242
     2  N   -0.783368
     3  C    0.821696
     4  O   -0.628809
     5  C    0.102530
     6  C   -0.472690
     7  C   -0.334431
     8  C   -0.311548
     9  C   -0.373007
    10  C   -0.178299
    11  C   -0.177251
    12  C   -0.351149
    13  C   -0.315420
    14  C   -0.354257
    15  C    0.138323
    16  C   -0.513220
    17  N   -0.807001
    18  C    0.772743
    19  C   -0.595623
    20  O   -0.615000
    21  C    0.792779
    22  O   -0.632716
    23  N   -0.802001
    24  C   -0.274718
    25  N   -0.842980
    26  C    0.744608
    27  C   -0.588733
    28  O   -0.591518
    29  H    0.186762
    30  H    0.199184
    31  H    0.163939
    32  H    0.391422
    33  H    0.198087
    34  H    0.144026
    35  H    0.212919
    36  H    0.161555
    37  H    0.182918
    38  H    0.164165
    39  H    0.179314
    40  H    0.214898
    41  H    0.168697
    42  H    0.183758
    43  H    0.174526
    44  H    0.176358
    45  H    0.166462
    46  H    0.175514
    47  H    0.161685
    48  H    0.172451
    49  H    0.202310
    50  H    0.183841
    51  H    0.146713
    52  H    0.223936
    53  H    0.394622
    54  H    0.210476
    55  H    0.210338
    56  H    0.176695
    57  H    0.395502
    58  H    0.163947
    59  H    0.198241
    60  H    0.185989
    61  H    0.382584
    62  H    0.218920
    63  H    0.177359
    64  H    0.201188
 Sum of Mulliken atomic charges =   0.00000
 Mulliken charges with hydrogens summed into heavy atoms:
              1
     1  C    0.269643
     2  N   -0.391947
     3  C    0.821696
     4  O   -0.628809
     5  C    0.102530
     6  C    0.082342
     7  C    0.010043
     8  C    0.031932
     9  C    0.010588
    10  C    0.005459
    11  C   -0.002724
    12  C   -0.008329
    13  C    0.021779
    14  C    0.020505
    15  C    0.138323
    16  C    0.041270
    17  N   -0.412379
    18  C    0.772743
    19  C    0.001886
    20  O   -0.615000
    21  C    0.792779
    22  O   -0.632716
    23  N   -0.406500
    24  C    0.273459
    25  N   -0.460396
    26  C    0.744608
    27  C    0.008734
    28  O   -0.591518
 Sum of Mulliken charges with hydrogens summed into heavy atoms =   0.00000
 Electronic spatial extent (au):  <R**2>=          22099.2415
 Charge=              0.0000 electrons
 Dipole moment (field-independent basis, Debye):
    X=              2.5647    Y=              0.0957    Z=             -8.1740  Tot=              8.5675
 Quadrupole moment (field-independent basis, Debye-Ang):
   XX=           -189.5799   YY=           -159.7874   ZZ=           -172.1837
   XY=              2.9135   XZ=            -17.7904   YZ=             -6.8181
 Traceless Quadrupole moment (field-independent basis, Debye-Ang):
   XX=            -15.7296   YY=             14.0629   ZZ=              1.6666
   XY=              2.9135   XZ=            -17.7904   YZ=             -6.8181
 Octapole moment (field-independent basis, Debye-Ang**2):
  XXX=            252.8799  YYY=             40.8387  ZZZ=              0.1818  XYY=            -10.7797
  XXY=             60.6620  XXZ=           -317.9157  XZZ=            -50.2199  YZZ=              3.7779
  YYZ=              3.9643  XYZ=             39.3613
 Hexadecapole moment (field-independent basis, Debye-Ang**3):
 XXXX=         -26277.9650 YYYY=          -2300.6615 ZZZZ=          -1822.0834 XXXY=           -420.0042
 XXXZ=           -677.7941 YYYX=            -41.4733 YYYZ=            -26.0692 ZZZX=           -138.2155
 ZZZY=            -11.7082 XXYY=          -4159.6685 XXZZ=          -4342.6524 YYZZ=           -687.5181
 XXYZ=           -322.1542 YYXZ=             27.1696 ZZXY=             69.0986
 N-N= 2.674147747602D+03 E-N=-8.380244699202D+03  KE= 1.294044689599D+03
 1\1\GINC-MOSURA\SP\RHF\6-31G(d)\C20H36N4O4\MARIE\05-Dec-2019\0\\#SP HF
 /6-31G* Geom=(ModRedundant)\\paramfit run\\0,1\C,0,0.,0.,0.\N,0,1.4481
 87,0.,0.\C,0,2.1232,0.47592,1.072365\O,0,1.590179,0.696732,2.124447\C,
 0,3.650505,0.594143,0.921539\C,0,4.198902,1.549248,1.986845\C,0,4.3077
 51,-0.809116,1.023981\C,0,4.133566,-1.622781,2.319066\C,0,2.832729,-2.
 433298,2.484965\C,0,2.579342,-3.423586,1.372579\C,0,2.834093,-4.721989
 ,1.375535\C,0,3.442731,-5.535663,2.492337\C,0,2.42774,-6.370218,3.2941
 33\C,0,1.693892,-7.402618,2.427801\C,0,0.774274,-8.428536,3.139447\C,0
 ,1.556289,-9.74636,3.262908\N,0,0.459368,-7.924907,4.469381\C,0,-0.449
 958,-8.550793,5.272158\C,0,-0.94889,-7.724373,6.435301\O,0,-0.829033,-
 9.671933,5.075972\C,0,-0.543923,-8.544059,2.340863\O,0,-1.428617,-7.74
 9421,2.51348\N,0,-0.611567,-9.496897,1.386136\C,0,-1.835168,-9.692624,
 0.636006\N,0,3.997412,1.070275,-0.425452\C,0,3.587019,2.267163,-0.9340
 86\C,0,4.328148,2.727659,-2.172145\O,0,2.697134,2.905425,-0.447397\H,0
 ,-0.403259,1.006147,0.\H,0,-0.36496,-0.516002,0.875939\H,0,-0.345658,-
 0.522086,-0.883346\H,0,1.904244,0.070913,-0.879357\H,0,3.932135,1.2217
 6,2.980082\H,0,5.28092,1.595925,1.9075\H,0,3.792711,2.540594,1.848395\
 H,0,5.374584,-0.64325,0.891407\H,0,3.984642,-1.403324,0.174983\H,0,4.9
 61565,-2.324757,2.354635\H,0,4.250121,-0.975721,3.182259\H,0,1.985724,
 -1.764045,2.562723\H,0,2.895638,-2.94811,3.437249\H,0,2.135502,-3.0091
 81,0.481856\H,0,2.579482,-5.276386,0.485828\H,0,3.971519,-4.889909,3.1
 82881\H,0,4.191817,-6.202016,2.066382\H,0,2.965623,-6.85691,4.102952\H
 ,0,1.714584,-5.707921,3.766998\H,0,2.42081,-7.979938,1.860503\H,0,1.08
 3167,-6.875737,1.704087\H,0,2.402626,-9.587201,3.920907\H,0,1.947277,-
 10.06294,2.30151\H,0,0.947496,-10.533635,3.681607\H,0,0.487989,-6.9357
 5,4.566649\H,0,-1.343985,-8.383497,7.193271\H,0,-1.748405,-7.079274,6.
 083524\H,0,-0.167813,-7.102465,6.859014\H,0,0.017129,-10.263305,1.4378
 03\H,0,-1.646362,-10.40979,-0.151995\H,0,-2.145783,-8.757252,0.194165\
 H,0,-2.639688,-10.058088,1.266036\H,0,4.82812,0.684785,-0.816437\H,0,3
 .710173,3.434604,-2.706288\H,0,4.588171,1.902533,-2.825678\H,0,5.24477
 1,3.226201,-1.873716\\Version=EM64L-G09RevA.02\State=1-A\HF=-1295.6139
 219\RMSD=6.262e-09\Dipole=2.6704505,-0.453039,-2.0062773\Quadrupole=4.
 0433115,-19.3950354,15.3517239,3.7316267,-1.0270916,-0.256601\PG=C01 [
 X(C20H36N4O4)]\\@


 WORK FAITHFULLY FOR EIGHT HOURS A DAY AND DON'T WORRY.
 IN TIME YOU MAY BECOME BOSS AND WORK TWELVE HOURS A DAY
 AND HAVE ALL THE WORRY.
 Job cpu time:  0 days  0 hours  4 minutes 55.6 seconds.
 File lengths (MBytes):  RWF=    132 Int=      0 D2E=      0 Chk=     10 Scr=      1
 Normal termination of Gaussian 09 at Thu Dec  5 19:55:16 2019.
