 Entering Gaussian System, Link 0=g09
 Input=CHI9_-30.gau
 Output=CHI9_-30.log
 Initial command:
 /home/marie/Utilities//g09/l1.exe /tmp/g09/Gau-14556.inp -scrdir=/tmp/g09/
 Entering Link 1 = /home/marie/Utilities//g09/l1.exe PID=     14558.
  
 Copyright (c) 1988,1990,1992,1993,1995,1998,2003,2009, Gaussian, Inc.
                  All Rights Reserved.
  
 This is part of the Gaussian(R) 09 program.  It is based on
 the Gaussian(R) 03 system (copyright 2003, Gaussian, Inc.),
 the Gaussian(R) 98 system (copyright 1998, Gaussian, Inc.),
 the Gaussian(R) 94 system (copyright 1995, Gaussian, Inc.),
 the Gaussian 92(TM) system (copyright 1992, Gaussian, Inc.),
 the Gaussian 90(TM) system (copyright 1990, Gaussian, Inc.),
 the Gaussian 88(TM) system (copyright 1988, Gaussian, Inc.),
 the Gaussian 86(TM) system (copyright 1986, Carnegie Mellon
 University), and the Gaussian 82(TM) system (copyright 1983,
 Carnegie Mellon University). Gaussian is a federally registered
 trademark of Gaussian, Inc.
  
 This software contains proprietary and confidential information,
 including trade secrets, belonging to Gaussian, Inc.
  
 This software is provided under written license and may be
 used, copied, transmitted, or stored only in accord with that
 written license.
  
 The following legend is applicable only to US Government
 contracts under FAR:
  
                    RESTRICTED RIGHTS LEGEND
  
 Use, reproduction and disclosure by the US Government is
 subject to restrictions as set forth in subparagraphs (a)
 and (c) of the Commercial Computer Software - Restricted
 Rights clause in FAR 52.227-19.
  
 Gaussian, Inc.
 340 Quinnipiac St., Bldg. 40, Wallingford CT 06492
  
  
 ---------------------------------------------------------------
 Warning -- This program may not be used in any manner that
 competes with the business of Gaussian, Inc. or will provide
 assistance to any competitor of Gaussian, Inc.  The licensee
 of this program is prohibited from giving any competitor of
 Gaussian, Inc. access to this program.  By using this program,
 the user acknowledges that Gaussian, Inc. is engaged in the
 business of creating and licensing software in the field of
 computational chemistry and represents and warrants to the
 licensee that it is not a competitor of Gaussian, Inc. and that
 it will not use this program in any manner prohibited above.
 ---------------------------------------------------------------
  

 Cite this work as:
 Gaussian 09, Revision A.02,
 M. J. Frisch, G. W. Trucks, H. B. Schlegel, G. E. Scuseria, 
 M. A. Robb, J. R. Cheeseman, G. Scalmani, V. Barone, B. Mennucci, 
 G. A. Petersson, H. Nakatsuji, M. Caricato, X. Li, H. P. Hratchian, 
 A. F. Izmaylov, J. Bloino, G. Zheng, J. L. Sonnenberg, M. Hada, 
 M. Ehara, K. Toyota, R. Fukuda, J. Hasegawa, M. Ishida, T. Nakajima, 
 Y. Honda, O. Kitao, H. Nakai, T. Vreven, J. A. Montgomery, Jr., 
 J. E. Peralta, F. Ogliaro, M. Bearpark, J. J. Heyd, E. Brothers, 
 K. N. Kudin, V. N. Staroverov, R. Kobayashi, J. Normand, 
 K. Raghavachari, A. Rendell, J. C. Burant, S. S. Iyengar, J. Tomasi, 
 M. Cossi, N. Rega, J. M. Millam, M. Klene, J. E. Knox, J. B. Cross, 
 V. Bakken, C. Adamo, J. Jaramillo, R. Gomperts, R. E. Stratmann, 
 O. Yazyev, A. J. Austin, R. Cammi, C. Pomelli, J. W. Ochterski, 
 R. L. Martin, K. Morokuma, V. G. Zakrzewski, G. A. Voth, 
 P. Salvador, J. J. Dannenberg, S. Dapprich, A. D. Daniels, 
 O. Farkas, J. B. Foresman, J. V. Ortiz, J. Cioslowski, 
 and D. J. Fox, Gaussian, Inc., Wallingford CT, 2009.
 
 ******************************************
 Gaussian 09:  EM64L-G09RevA.02 11-Jun-2009
                 5-Dec-2019 
 ******************************************
 %chk=CHI9_-30
 %NoSave
 ---------------------------------
 #SP HF/6-31G* Geom=(ModRedundant)
 ---------------------------------
 1/18=120,38=1/1;
 2/12=2,17=6,18=5,40=1/2;
 3/5=1,6=6,7=1,11=9,16=1,25=1,30=1/1,2,3;
 4//1;
 5/5=2,38=5/2;
 6/7=2,8=2,9=2,10=2,28=1/1;
 99/5=1,9=1/99;
 ------------
 paramfit run
 ------------
 Symbolic Z-matrix:
 Charge =  0 Multiplicity = 1
 C-CT--0.3208          0.        0.        0. 
 N-N--0.5622           1.44819   0.        0. 
 C-C-0.8053            2.1232    0.47592   1.07237 
 O-O--0.6151           1.59018   0.69673   2.12445 
 C-CX-0.0839           3.65051   0.59414   0.92154 
 C-CU--0.3230          4.1989    1.54925   1.98685 
 C-CU--0.0657          4.30775  -0.80912   1.02398 
 C-CU--0.0109          4.13357  -1.62278   2.31907 
 C-CU-0.0816           2.83273  -2.4333    2.48497 
 C-CM--0.2354          2.57934  -3.42359   1.37258 
 C-CM--0.2653          2.83409  -4.72199   1.37554 
 C-CU-0.1214           3.44273  -5.53566   2.49234 
 C-CU--0.0354          2.42774  -6.37022   3.29413 
 C-CU--0.0984          1.69389  -7.40262   2.4278 
 C-CU-0.1300           0.77427  -8.42854   3.13945 
 C-CU--0.3561          1.35194  -8.67553   4.54257 
 N-N--0.7186          -0.55844  -7.85289   3.25796 
 C-C-0.8537           -1.61437  -8.58711   3.71511 
 C-CT--0.3868         -2.97492  -7.99459   3.42764 
 O-O--0.6323          -1.48058  -9.62491   4.3018 
 C-C-0.7903            0.67786  -9.69558   2.25965 
 O-O--0.6136          -0.10522  -9.74314   1.34946 
 N-N--0.5650           1.56851  -10.68383   2.49222 
 C-CT--0.3231          1.50141  -11.91886   1.7383 
 N-N--0.7191           3.99741   1.07028  -0.42545 
 C-C-0.8539            3.58702   2.26716  -0.93409 
 C-CT--0.3903          4.32815   2.72766  -2.17214 
 O-O--0.6290           2.69713   2.90543  -0.4474 
 H-H1-0.1459          -0.40326   1.00615   0. 
 H-H1-0.1459          -0.36496  -0.516     0.87594 
 H-H1-0.1459          -0.34566  -0.52209  -0.88335 
 H-H-0.3572            1.90424   0.07091  -0.87936 
 H-HC-0.0997           3.93214   1.22176   2.98008 
 H-HC-0.0997           5.28092   1.59593   1.9075 
 H-HC-0.0997           3.79271   2.54059   1.8484 
 H-HC-0.0347           5.37458  -0.64325   0.89141 
 H-HC-0.0347           3.98464  -1.40332   0.17498 
 H-HC-0.0243           4.96157  -2.32476   2.35464 
 H-HC-0.0243           4.25012  -0.97572   3.18226 
 H-HC-0.0171           1.98572  -1.76405   2.56272 
 H-HC-0.0171           2.89564  -2.94811   3.43725 
 H-HA-0.1313           2.1355   -3.00918   0.48186 
 H-HA-0.1359           2.57948  -5.27639   0.48583 
 H-HC-0.0092           3.97152  -4.88991   3.18288 
 H-HC-0.0092           4.19182  -6.20202   2.06638 
 H-HC-0.0318           2.96562  -6.85691   4.10295 
 H-HC-0.0318           1.71458  -5.70792   3.767 
 H-HC-0.0435           2.42081  -7.97994   1.8605 
 H-HC-0.0435           1.08317  -6.87574   1.70409 
 H-HC-0.1066           1.2828   -7.75656   5.11291 
 H-HC-0.1066           2.40079  -8.94913   4.49324 
 H-HC-0.1066           0.80383  -9.44154   5.07034 
 H-H-0.3529           -0.79113  -7.1752    2.56853 
 H-HC-0.1047          -3.69434  -8.41125   4.11603 
 H-HC-0.1047          -3.26335  -8.26511   2.41633 
 H-HC-0.1047          -2.97397  -6.91283   3.50618 
 H-H-0.3615            2.0203   -10.71478   3.37553 
 H-H1-0.1469           2.36482  -12.52223   1.98609 
 H-H1-0.1469           1.51521  -11.70166   0.68035 
 H-H1-0.1469           0.59883  -12.47851   1.96167 
 H-H-0.3570            4.82812   0.68479  -0.81644 
 H-HC-0.1060           3.71017   3.4346   -2.70629 
 H-HC-0.1060           4.58817   1.90253  -2.82568 
 H-HC-0.1060           5.24477   3.2262   -1.87372 
 
 The following ModRedundant input section has been read:
 D    *   14   15    * F                                                       
 Stoichiometry    C20H36N4O4
 Framework group  C1[X(C20H36N4O4)]
 Deg. of freedom   186
 Full point group                 C1      NOp   1
 Largest Abelian subgroup         C1      NOp   1
 Largest concise Abelian subgroup C1      NOp   1
                         Standard orientation:                         
 ---------------------------------------------------------------------
 Center     Atomic      Atomic             Coordinates (Angstroms)
 Number     Number       Type             X           Y           Z
 ---------------------------------------------------------------------
      1          6    20001001       -3.722971    2.815839    1.011830
      2          7    20001014       -4.107104    1.430493    0.837175
      3          6    20001002       -4.464274    0.978309   -0.387597
      4          8    20001024       -4.268303    1.607579   -1.390273
      5          6    90000001       -5.016888   -0.456903   -0.452194
      6          6    90000002       -5.788763   -0.651077   -1.761525
      7          6    90000002       -3.858202   -1.482136   -0.318227
      8          6    90000002       -2.733267   -1.479499   -1.369013
      9          6    90000002       -1.591859   -0.458436   -1.192219
     10          6    20001004       -0.877099   -0.559060    0.134910
     11          6    20001004        0.266016   -1.174534    0.390326
     12          6    90000002        1.139195   -1.930265   -0.582393
     13          6    90000002        2.384547   -1.155606   -1.049906
     14          6    90000002        3.326884   -0.795555    0.106502
     15          6    90000002        4.702956   -0.171758   -0.242705
     16          6    90000002        5.127126   -0.720258   -1.614814
     17          7    20001014        4.549352    1.274341   -0.324754
     18          6    20001002        5.626771    2.098521   -0.476248
     19          6    20001001        5.364365    3.554425   -0.165939
     20          8    20001024        6.703585    1.704555   -0.828961
     21          6    20001002        5.691540   -0.489410    0.902076
     22          8    20001024        5.718330    0.197504    1.887652
     23          7    20001014        6.433779   -1.612094    0.789638
     24          6    20001001        7.415908   -1.941917    1.801985
     25          7    20001014       -5.885942   -0.724224    0.703104
     26          6    20001002       -7.018312   -0.015918    0.978261
     27          6    20001001       -7.950406   -0.659023    1.984112
     28          8    20001024       -7.256613    1.044149    0.472683
     29          1    20001035       -4.553615    3.489816    0.836515
     30          1    20001035       -2.928545    3.063880    0.323291
     31          1    20001035       -3.363364    2.949819    2.024295
     32          1    20001029       -4.511769    0.967628    1.617103
     33          1    20001034       -5.167028   -0.436710   -2.617343
     34          1    20001034       -6.138902   -1.677005   -1.825648
     35          1    20001034       -6.639099    0.014079   -1.799251
     36          1    20001034       -4.328555   -2.462235   -0.355553
     37          1    20001034       -3.428867   -1.388553    0.674342
     38          1    20001034       -2.289934   -2.470756   -1.347036
     39          1    20001034       -3.153552   -1.359593   -2.362168
     40          1    20001034       -1.971612    0.547675   -1.314256
     41          1    20001034       -0.893142   -0.615284   -2.006483
     42          1    20001033       -1.365973   -0.063289    0.957908
     43          1    20001033        0.630008   -1.137245    1.405156
     44          1    20001034        0.568056   -2.214288   -1.457948
     45          1    20001034        1.456050   -2.860450   -0.112337
     46          1    20001034        2.895570   -1.766416   -1.788920
     47          1    20001034        2.073550   -0.258451   -1.568774
     48          1    20001034        3.531673   -1.686571    0.696153
     49          1    20001034        2.818792   -0.099012    0.763023
     50          1    20001034        4.430234   -0.360449   -2.362783
     51          1    20001034        5.091675   -1.804603   -1.632693
     52          1    20001034        6.116952   -0.387208   -1.888787
     53          1    20001029        3.808936    1.654284    0.219434
     54          1    20001034        6.113829    4.160000   -0.652400
     55          1    20001034        5.442700    3.698899    0.907428
     56          1    20001034        4.375473    3.867582   -0.482812
     57          1    20001029        6.561378   -2.006031   -0.112494
     58          1    20001035        7.810479   -2.927475    1.592441
     59          1    20001035        6.948032   -1.949330    2.775465
     60          1    20001035        8.232122   -1.226901    1.819309
     61          1    20001029       -5.843814   -1.650169    1.066971
     62          1    20001034       -8.577460    0.106150    2.418033
     63          1    20001034       -7.412188   -1.178989    2.768654
     64          1    20001034       -8.584270   -1.377140    1.473891
 ---------------------------------------------------------------------
 Rotational constants (GHZ):      0.3747970      0.0472899      0.0456021
 Standard basis: 6-31G(d) (6D, 7F)
 There are   492 symmetry adapted basis functions of A   symmetry.
 Integral buffers will be    131072 words long.
 Raffenetti 1 integral format.
 Two-electron integral symmetry is turned on.
   492 basis functions,   928 primitive gaussians,   492 cartesian basis functions
   108 alpha electrons      108 beta electrons
       nuclear repulsion energy      2658.9933204817 Hartrees.
 NAtoms=   64 NActive=   64 NUniq=   64 SFac= 7.50D-01 NAtFMM=   80 NAOKFM=F Big=T
 One-electron integrals computed using PRISM.
 NBasis=   492 RedAO= T  NBF=   492
 NBsUse=   492 1.00D-06 NBFU=   492
 Harris functional with IExCor=  205 diagonalized for initial guess.
 ExpMin= 1.61D-01 ExpMax= 5.48D+03 ExpMxC= 8.25D+02 IAcc=1 IRadAn=         1 AccDes= 0.00D+00
 HarFok:  IExCor=  205 AccDes= 0.00D+00 IRadAn=         1 IDoV= 1
 ScaDFX=  1.000000  1.000000  1.000000  1.000000
 FoFCou: FMM=F IPFlag=           0 FMFlag=      100000 FMFlg1=           1
         NFxFlg=           0 DoJE=T BraDBF=F KetDBF=T FulRan=T
         Omega=  0.000000  0.000000  1.000000  0.000000  0.000000 ICntrl=     500 IOpCl=  0
         NMat0=    1 NMatS0=    1 NMatT0=    0 NMatD0=    1 NMtDS0=    0 NMtDT0=    0
         I1Cent=           4 NGrid=           0.
 Petite list used in FoFCou.
 Initial guess orbital symmetries:
       Occupied  (A) (A) (A) (A) (A) (A) (A) (A) (A) (A) (A) (A)
                 (A) (A) (A) (A) (A) (A) (A) (A) (A) (A) (A) (A)
                 (A) (A) (A) (A) (A) (A) (A) (A) (A) (A) (A) (A)
                 (A) (A) (A) (A) (A) (A) (A) (A) (A) (A) (A) (A)
                 (A) (A) (A) (A) (A) (A) (A) (A) (A) (A) (A) (A)
                 (A) (A) (A) (A) (A) (A) (A) (A) (A) (A) (A) (A)
                 (A) (A) (A) (A) (A) (A) (A) (A) (A) (A) (A) (A)
                 (A) (A) (A) (A) (A) (A) (A) (A) (A) (A) (A) (A)
                 (A) (A) (A) (A) (A) (A) (A) (A) (A) (A) (A) (A)
       Virtual   (A) (A) (A) (A) (A) (A) (A) (A) (A) (A) (A) (A)
                 (A) (A) (A) (A) (A) (A) (A) (A) (A) (A) (A) (A)
                 (A) (A) (A) (A) (A) (A) (A) (A) (A) (A) (A) (A)
                 (A) (A) (A) (A) (A) (A) (A) (A) (A) (A) (A) (A)
                 (A) (A) (A) (A) (A) (A) (A) (A) (A) (A) (A) (A)
                 (A) (A) (A) (A) (A) (A) (A) (A) (A) (A) (A) (A)
                 (A) (A) (A) (A) (A) (A) (A) (A) (A) (A) (A) (A)
                 (A) (A) (A) (A) (A) (A) (A) (A) (A) (A) (A) (A)
                 (A) (A) (A) (A) (A) (A) (A) (A) (A) (A) (A) (A)
                 (A) (A) (A) (A) (A) (A) (A) (A) (A) (A) (A) (A)
                 (A) (A) (A) (A) (A) (A) (A) (A) (A) (A) (A) (A)
                 (A) (A) (A) (A) (A) (A) (A) (A) (A) (A) (A) (A)
                 (A) (A) (A) (A) (A) (A) (A) (A) (A) (A) (A) (A)
                 (A) (A) (A) (A) (A) (A) (A) (A) (A) (A) (A) (A)
                 (A) (A) (A) (A) (A) (A) (A) (A) (A) (A) (A) (A)
                 (A) (A) (A) (A) (A) (A) (A) (A) (A) (A) (A) (A)
                 (A) (A) (A) (A) (A) (A) (A) (A) (A) (A) (A) (A)
                 (A) (A) (A) (A) (A) (A) (A) (A) (A) (A) (A) (A)
                 (A) (A) (A) (A) (A) (A) (A) (A) (A) (A) (A) (A)
                 (A) (A) (A) (A) (A) (A) (A) (A) (A) (A) (A) (A)
                 (A) (A) (A) (A) (A) (A) (A) (A) (A) (A) (A) (A)
                 (A) (A) (A) (A) (A) (A) (A) (A) (A) (A) (A) (A)
                 (A) (A) (A) (A) (A) (A) (A) (A) (A) (A) (A) (A)
                 (A) (A) (A) (A) (A) (A) (A) (A) (A) (A) (A) (A)
                 (A) (A) (A) (A) (A) (A) (A) (A) (A) (A) (A) (A)
                 (A) (A) (A) (A) (A) (A) (A) (A) (A) (A) (A) (A)
                 (A) (A) (A) (A) (A) (A) (A) (A) (A) (A) (A) (A)
                 (A) (A) (A) (A) (A) (A) (A) (A) (A) (A) (A) (A)
                 (A) (A) (A) (A) (A) (A) (A) (A) (A) (A) (A) (A)
                 (A) (A) (A) (A) (A) (A) (A) (A) (A) (A) (A) (A)
                 (A) (A) (A) (A) (A) (A) (A) (A) (A) (A) (A) (A)
                 (A) (A) (A) (A) (A) (A) (A) (A) (A) (A) (A) (A)
 The electronic state of the initial guess is 1-A.
 Requested convergence on RMS density matrix=1.00D-08 within 128 cycles.
 Requested convergence on MAX density matrix=1.00D-06.
 Requested convergence on             energy=1.00D-06.
 No special actions if energy rises.
 Integral accuracy reduced to 1.0D-05 until final iterations.
 Initial convergence to 1.0D-05 achieved.  Increase integral accuracy.
 SCF Done:  E(RHF) =  -1295.61589242     A.U. after   14 cycles
             Convg  =    0.6512D-08             -V/T =  2.0012

 **********************************************************************

            Population analysis using the SCF density.

 **********************************************************************

 Orbital symmetries:
       Occupied  (A) (A) (A) (A) (A) (A) (A) (A) (A) (A) (A) (A)
                 (A) (A) (A) (A) (A) (A) (A) (A) (A) (A) (A) (A)
                 (A) (A) (A) (A) (A) (A) (A) (A) (A) (A) (A) (A)
                 (A) (A) (A) (A) (A) (A) (A) (A) (A) (A) (A) (A)
                 (A) (A) (A) (A) (A) (A) (A) (A) (A) (A) (A) (A)
                 (A) (A) (A) (A) (A) (A) (A) (A) (A) (A) (A) (A)
                 (A) (A) (A) (A) (A) (A) (A) (A) (A) (A) (A) (A)
                 (A) (A) (A) (A) (A) (A) (A) (A) (A) (A) (A) (A)
                 (A) (A) (A) (A) (A) (A) (A) (A) (A) (A) (A) (A)
       Virtual   (A) (A) (A) (A) (A) (A) (A) (A) (A) (A) (A) (A)
                 (A) (A) (A) (A) (A) (A) (A) (A) (A) (A) (A) (A)
                 (A) (A) (A) (A) (A) (A) (A) (A) (A) (A) (A) (A)
                 (A) (A) (A) (A) (A) (A) (A) (A) (A) (A) (A) (A)
                 (A) (A) (A) (A) (A) (A) (A) (A) (A) (A) (A) (A)
                 (A) (A) (A) (A) (A) (A) (A) (A) (A) (A) (A) (A)
                 (A) (A) (A) (A) (A) (A) (A) (A) (A) (A) (A) (A)
                 (A) (A) (A) (A) (A) (A) (A) (A) (A) (A) (A) (A)
                 (A) (A) (A) (A) (A) (A) (A) (A) (A) (A) (A) (A)
                 (A) (A) (A) (A) (A) (A) (A) (A) (A) (A) (A) (A)
                 (A) (A) (A) (A) (A) (A) (A) (A) (A) (A) (A) (A)
                 (A) (A) (A) (A) (A) (A) (A) (A) (A) (A) (A) (A)
                 (A) (A) (A) (A) (A) (A) (A) (A) (A) (A) (A) (A)
                 (A) (A) (A) (A) (A) (A) (A) (A) (A) (A) (A) (A)
                 (A) (A) (A) (A) (A) (A) (A) (A) (A) (A) (A) (A)
                 (A) (A) (A) (A) (A) (A) (A) (A) (A) (A) (A) (A)
                 (A) (A) (A) (A) (A) (A) (A) (A) (A) (A) (A) (A)
                 (A) (A) (A) (A) (A) (A) (A) (A) (A) (A) (A) (A)
                 (A) (A) (A) (A) (A) (A) (A) (A) (A) (A) (A) (A)
                 (A) (A) (A) (A) (A) (A) (A) (A) (A) (A) (A) (A)
                 (A) (A) (A) (A) (A) (A) (A) (A) (A) (A) (A) (A)
                 (A) (A) (A) (A) (A) (A) (A) (A) (A) (A) (A) (A)
                 (A) (A) (A) (A) (A) (A) (A) (A) (A) (A) (A) (A)
                 (A) (A) (A) (A) (A) (A) (A) (A) (A) (A) (A) (A)
                 (A) (A) (A) (A) (A) (A) (A) (A) (A) (A) (A) (A)
                 (A) (A) (A) (A) (A) (A) (A) (A) (A) (A) (A) (A)
                 (A) (A) (A) (A) (A) (A) (A) (A) (A) (A) (A) (A)
                 (A) (A) (A) (A) (A) (A) (A) (A) (A) (A) (A) (A)
                 (A) (A) (A) (A) (A) (A) (A) (A) (A) (A) (A) (A)
                 (A) (A) (A) (A) (A) (A) (A) (A) (A) (A) (A) (A)
                 (A) (A) (A) (A) (A) (A) (A) (A) (A) (A) (A) (A)
                 (A) (A) (A) (A) (A) (A) (A) (A) (A) (A) (A) (A)
 The electronic state is 1-A.
 Alpha  occ. eigenvalues --  -20.53732 -20.51993 -20.51974 -20.51731 -15.59703
 Alpha  occ. eigenvalues --  -15.57999 -15.57658 -15.57475 -11.36048 -11.34161
 Alpha  occ. eigenvalues --  -11.33999 -11.33785 -11.29153 -11.28540 -11.25167
 Alpha  occ. eigenvalues --  -11.25015 -11.24414 -11.24146 -11.23475 -11.22896
 Alpha  occ. eigenvalues --  -11.22844 -11.22783 -11.22392 -11.22392 -11.22196
 Alpha  occ. eigenvalues --  -11.21862 -11.21650 -11.20981  -1.40673  -1.39360
 Alpha  occ. eigenvalues --   -1.38847  -1.38092  -1.25534  -1.23514  -1.22715
 Alpha  occ. eigenvalues --   -1.22202  -1.11041  -1.09540  -1.07328  -1.04187
 Alpha  occ. eigenvalues --   -1.01224  -0.99410  -0.98520  -0.95640  -0.95288
 Alpha  occ. eigenvalues --   -0.94603  -0.92787  -0.88061  -0.86197  -0.82586
 Alpha  occ. eigenvalues --   -0.80902  -0.79417  -0.78790  -0.77303  -0.76834
 Alpha  occ. eigenvalues --   -0.72022  -0.71320  -0.71009  -0.69029  -0.68302
 Alpha  occ. eigenvalues --   -0.66647  -0.65950  -0.65305  -0.64187  -0.63877
 Alpha  occ. eigenvalues --   -0.62892  -0.62550  -0.61982  -0.61515  -0.61161
 Alpha  occ. eigenvalues --   -0.60984  -0.60046  -0.59322  -0.59126  -0.58397
 Alpha  occ. eigenvalues --   -0.58318  -0.58129  -0.56875  -0.56580  -0.55981
 Alpha  occ. eigenvalues --   -0.55456  -0.55196  -0.54666  -0.54487  -0.53601
 Alpha  occ. eigenvalues --   -0.53452  -0.52952  -0.52749  -0.52284  -0.51192
 Alpha  occ. eigenvalues --   -0.50979  -0.50406  -0.49819  -0.49200  -0.48728
 Alpha  occ. eigenvalues --   -0.48246  -0.47180  -0.47094  -0.44638  -0.42967
 Alpha  occ. eigenvalues --   -0.42061  -0.41658  -0.40944  -0.39404  -0.38906
 Alpha  occ. eigenvalues --   -0.38449  -0.38327  -0.34733
 Alpha virt. eigenvalues --    0.17245   0.18722   0.19888   0.20093   0.20142
 Alpha virt. eigenvalues --    0.21214   0.21989   0.23082   0.23390   0.23841
 Alpha virt. eigenvalues --    0.25148   0.25226   0.26292   0.26836   0.27366
 Alpha virt. eigenvalues --    0.27836   0.28004   0.28847   0.29263   0.29302
 Alpha virt. eigenvalues --    0.29443   0.30257   0.30383   0.31044   0.31589
 Alpha virt. eigenvalues --    0.31948   0.32419   0.32573   0.32966   0.33158
 Alpha virt. eigenvalues --    0.33780   0.34182   0.34436   0.34860   0.35028
 Alpha virt. eigenvalues --    0.35797   0.36079   0.36400   0.36696   0.37423
 Alpha virt. eigenvalues --    0.37720   0.38407   0.38935   0.39391   0.39770
 Alpha virt. eigenvalues --    0.40451   0.41157   0.41240   0.42403   0.43662
 Alpha virt. eigenvalues --    0.44604   0.44708   0.45530   0.46270   0.46863
 Alpha virt. eigenvalues --    0.48623   0.48879   0.50131   0.51947   0.52619
 Alpha virt. eigenvalues --    0.53722   0.55002   0.57016   0.58777   0.59895
 Alpha virt. eigenvalues --    0.61812   0.63321   0.63929   0.68768   0.70683
 Alpha virt. eigenvalues --    0.70914   0.71447   0.72206   0.73196   0.73456
 Alpha virt. eigenvalues --    0.74102   0.74355   0.74989   0.75630   0.76582
 Alpha virt. eigenvalues --    0.76710   0.77058   0.77531   0.78876   0.79175
 Alpha virt. eigenvalues --    0.80072   0.80480   0.80705   0.80820   0.82102
 Alpha virt. eigenvalues --    0.83062   0.83740   0.83814   0.85399   0.86315
 Alpha virt. eigenvalues --    0.86971   0.87625   0.89212   0.89860   0.90663
 Alpha virt. eigenvalues --    0.91638   0.91937   0.93473   0.93826   0.94368
 Alpha virt. eigenvalues --    0.95061   0.96033   0.96780   0.97126   0.97759
 Alpha virt. eigenvalues --    0.98404   0.98471   0.99742   1.00105   1.00853
 Alpha virt. eigenvalues --    1.01391   1.01722   1.02058   1.02950   1.03649
 Alpha virt. eigenvalues --    1.04015   1.04409   1.05530   1.05929   1.07037
 Alpha virt. eigenvalues --    1.07704   1.08048   1.08948   1.10873   1.11152
 Alpha virt. eigenvalues --    1.11820   1.11981   1.13078   1.13548   1.14068
 Alpha virt. eigenvalues --    1.14229   1.14639   1.15014   1.15644   1.15850
 Alpha virt. eigenvalues --    1.16138   1.16378   1.16835   1.17009   1.17595
 Alpha virt. eigenvalues --    1.18109   1.18219   1.18351   1.19028   1.19128
 Alpha virt. eigenvalues --    1.19263   1.19989   1.20082   1.20533   1.20988
 Alpha virt. eigenvalues --    1.21795   1.22205   1.22409   1.22541   1.22960
 Alpha virt. eigenvalues --    1.23124   1.23509   1.24091   1.24647   1.25160
 Alpha virt. eigenvalues --    1.25402   1.26291   1.26797   1.27454   1.28044
 Alpha virt. eigenvalues --    1.29134   1.29756   1.31373   1.32053   1.32623
 Alpha virt. eigenvalues --    1.33405   1.34716   1.35355   1.36140   1.37248
 Alpha virt. eigenvalues --    1.37878   1.39193   1.40697   1.41927   1.43501
 Alpha virt. eigenvalues --    1.43809   1.44067   1.45591   1.46615   1.49079
 Alpha virt. eigenvalues --    1.50022   1.51028   1.52878   1.53577   1.54744
 Alpha virt. eigenvalues --    1.56632   1.57155   1.59774   1.60110   1.60805
 Alpha virt. eigenvalues --    1.61807   1.64344   1.64863   1.66732   1.68321
 Alpha virt. eigenvalues --    1.69319   1.70857   1.71678   1.72344   1.73418
 Alpha virt. eigenvalues --    1.73638   1.74194   1.78264   1.79391   1.79676
 Alpha virt. eigenvalues --    1.81405   1.82290   1.83752   1.87111   1.87922
 Alpha virt. eigenvalues --    1.89399   1.89749   1.92584   1.93472   1.94231
 Alpha virt. eigenvalues --    1.95900   1.96646   1.98744   1.99659   2.00477
 Alpha virt. eigenvalues --    2.01526   2.05698   2.05859   2.07270   2.07613
 Alpha virt. eigenvalues --    2.07947   2.10248   2.10969   2.11925   2.12169
 Alpha virt. eigenvalues --    2.12460   2.13280   2.13798   2.14496   2.15844
 Alpha virt. eigenvalues --    2.16414   2.17516   2.18182   2.18973   2.19345
 Alpha virt. eigenvalues --    2.20502   2.20860   2.21828   2.22951   2.24190
 Alpha virt. eigenvalues --    2.25014   2.25780   2.26344   2.27272   2.27715
 Alpha virt. eigenvalues --    2.28315   2.29311   2.30007   2.30361   2.31302
 Alpha virt. eigenvalues --    2.33815   2.34481   2.34676   2.35057   2.35576
 Alpha virt. eigenvalues --    2.36204   2.36755   2.38113   2.38387   2.39084
 Alpha virt. eigenvalues --    2.40763   2.41565   2.42604   2.44109   2.44931
 Alpha virt. eigenvalues --    2.45390   2.45581   2.46525   2.48355   2.50163
 Alpha virt. eigenvalues --    2.51470   2.52484   2.54364   2.54758   2.55598
 Alpha virt. eigenvalues --    2.56722   2.57102   2.58175   2.58632   2.61208
 Alpha virt. eigenvalues --    2.62608   2.62980   2.64498   2.64894   2.65893
 Alpha virt. eigenvalues --    2.66496   2.69197   2.69554   2.70605   2.71349
 Alpha virt. eigenvalues --    2.72672   2.74040   2.74635   2.75426   2.76434
 Alpha virt. eigenvalues --    2.77103   2.78385   2.78660   2.79106   2.79444
 Alpha virt. eigenvalues --    2.81337   2.82967   2.83488   2.84160   2.86776
 Alpha virt. eigenvalues --    2.87493   2.88065   2.90941   2.92132   2.95553
 Alpha virt. eigenvalues --    2.96624   2.97804   2.98053   2.98251   3.01377
 Alpha virt. eigenvalues --    3.03037   3.04270   3.05035   3.06370   3.07088
 Alpha virt. eigenvalues --    3.08194   3.11238   3.12718   3.13827   3.15184
 Alpha virt. eigenvalues --    3.16615   3.19140   3.22354   3.29493   3.30093
 Alpha virt. eigenvalues --    3.34501   3.34738   3.38658   3.40319   3.40837
 Alpha virt. eigenvalues --    3.41929   3.42873   3.53164   3.55529   3.57768
 Alpha virt. eigenvalues --    3.60039   4.38137   4.40806   4.44603   4.46750
 Alpha virt. eigenvalues --    4.48770   4.51293   4.54876   4.57341   4.61544
 Alpha virt. eigenvalues --    4.63342   4.65853   4.67422   4.68403   4.70884
 Alpha virt. eigenvalues --    4.71673   4.77373   4.78939   4.81812   4.83527
 Alpha virt. eigenvalues --    4.86723   4.87901   4.93532   4.94910   4.98048
 Alpha virt. eigenvalues --    5.00614   5.11831   5.21820   5.26440
          Condensed to atoms (all electrons):
 Mulliken atomic charges:
              1
     1  C   -0.279705
     2  N   -0.783399
     3  C    0.821845
     4  O   -0.628943
     5  C    0.102381
     6  C   -0.472740
     7  C   -0.334600
     8  C   -0.311498
     9  C   -0.372725
    10  C   -0.181246
    11  C   -0.180145
    12  C   -0.350840
    13  C   -0.309950
    14  C   -0.334699
    15  C    0.114345
    16  C   -0.527091
    17  N   -0.786357
    18  C    0.766462
    19  C   -0.594715
    20  O   -0.614464
    21  C    0.799987
    22  O   -0.632687
    23  N   -0.803250
    24  C   -0.274370
    25  N   -0.843055
    26  C    0.744516
    27  C   -0.588762
    28  O   -0.591794
    29  H    0.187423
    30  H    0.196835
    31  H    0.163459
    32  H    0.391897
    33  H    0.198183
    34  H    0.144382
    35  H    0.212847
    36  H    0.161919
    37  H    0.183056
    38  H    0.164817
    39  H    0.179416
    40  H    0.212949
    41  H    0.170800
    42  H    0.182094
    43  H    0.175914
    44  H    0.175630
    45  H    0.165337
    46  H    0.170319
    47  H    0.175004
    48  H    0.181531
    49  H    0.177394
    50  H    0.193337
    51  H    0.147955
    52  H    0.227384
    53  H    0.384814
    54  H    0.210999
    55  H    0.208617
    56  H    0.178589
    57  H    0.396021
    58  H    0.164347
    59  H    0.197791
    60  H    0.185658
    61  H    0.382881
    62  H    0.218908
    63  H    0.177603
    64  H    0.201392
 Sum of Mulliken atomic charges =   0.00000
 Mulliken charges with hydrogens summed into heavy atoms:
              1
     1  C    0.268013
     2  N   -0.391502
     3  C    0.821845
     4  O   -0.628943
     5  C    0.102381
     6  C    0.082673
     7  C    0.010375
     8  C    0.032735
     9  C    0.011024
    10  C    0.000848
    11  C   -0.004232
    12  C   -0.009873
    13  C    0.035374
    14  C    0.024226
    15  C    0.114345
    16  C    0.041585
    17  N   -0.401544
    18  C    0.766462
    19  C    0.003491
    20  O   -0.614464
    21  C    0.799987
    22  O   -0.632687
    23  N   -0.407230
    24  C    0.273425
    25  N   -0.460175
    26  C    0.744516
    27  C    0.009142
    28  O   -0.591794
 Sum of Mulliken charges with hydrogens summed into heavy atoms =   0.00000
 Electronic spatial extent (au):  <R**2>=          23046.5655
 Charge=              0.0000 electrons
 Dipole moment (field-independent basis, Debye):
    X=             -2.7446    Y=             -6.1532    Z=              2.7159  Tot=              7.2643
 Quadrupole moment (field-independent basis, Debye-Ang):
   XX=           -196.7661   YY=           -161.1579   ZZ=           -173.9987
   XY=             10.0041   XZ=            -25.6064   YZ=              5.8525
 Traceless Quadrupole moment (field-independent basis, Debye-Ang):
   XX=            -19.4586   YY=             16.1497   ZZ=              3.3089
   XY=             10.0041   XZ=            -25.6064   YZ=              5.8525
 Octapole moment (field-independent basis, Debye-Ang**2):
  XXX=           -181.6811  YYY=             36.3947  ZZZ=             12.5164  XYY=             61.4527
  XXY=           -336.4634  XXZ=            126.4292  XZZ=            -51.2206  YZZ=             -9.2375
  YYZ=             20.9080  XYZ=            -10.9254
 Hexadecapole moment (field-independent basis, Debye-Ang**3):
 XXXX=         -27471.5420 YYYY=          -2431.6709 ZZZZ=          -1485.4212 XXXY=             61.4339
 XXXZ=           -607.4857 YYYX=             86.1574 YYYZ=             10.2672 ZZZX=           -119.1588
 ZZZY=             -6.8719 XXYY=          -4521.0716 XXZZ=          -4596.8652 YYZZ=           -674.3951
 XXYZ=             11.3096 YYXZ=            -29.9688 ZZXY=            -34.8937
 N-N= 2.658993320482D+03 E-N=-8.349814189576D+03  KE= 1.294036584467D+03
 1\1\GINC-MOSURA\SP\RHF\6-31G(d)\C20H36N4O4\MARIE\05-Dec-2019\0\\#SP HF
 /6-31G* Geom=(ModRedundant)\\paramfit run\\0,1\C,0,0.,0.,0.\N,0,1.4481
 87,0.,0.\C,0,2.1232,0.47592,1.072365\O,0,1.590179,0.696732,2.124447\C,
 0,3.650505,0.594143,0.921539\C,0,4.198902,1.549248,1.986845\C,0,4.3077
 51,-0.809116,1.023981\C,0,4.133566,-1.622781,2.319066\C,0,2.832729,-2.
 433298,2.484965\C,0,2.579342,-3.423586,1.372579\C,0,2.834093,-4.721989
 ,1.375535\C,0,3.442731,-5.535663,2.492337\C,0,2.42774,-6.370218,3.2941
 33\C,0,1.693892,-7.402618,2.427801\C,0,0.774274,-8.428536,3.139447\C,0
 ,1.351941,-8.675528,4.542568\N,0,-0.558436,-7.852889,3.257956\C,0,-1.6
 14368,-8.587105,3.715111\C,0,-2.974916,-7.99459,3.427641\O,0,-1.480584
 ,-9.624913,4.301796\C,0,0.677857,-9.695577,2.259654\O,0,-0.105219,-9.7
 43141,1.349457\N,0,1.568505,-10.683828,2.492218\C,0,1.501414,-11.91886
 2,1.738299\N,0,3.997412,1.070275,-0.425452\C,0,3.587019,2.267163,-0.93
 4086\C,0,4.328148,2.727659,-2.172145\O,0,2.697134,2.905425,-0.447397\H
 ,0,-0.403259,1.006147,0.\H,0,-0.36496,-0.516002,0.875939\H,0,-0.345658
 ,-0.522086,-0.883346\H,0,1.904244,0.070913,-0.879357\H,0,3.932135,1.22
 176,2.980082\H,0,5.28092,1.595925,1.9075\H,0,3.792711,2.540594,1.84839
 5\H,0,5.374584,-0.64325,0.891407\H,0,3.984642,-1.403324,0.174983\H,0,4
 .961565,-2.324757,2.354635\H,0,4.250121,-0.975721,3.182259\H,0,1.98572
 4,-1.764045,2.562723\H,0,2.895638,-2.94811,3.437249\H,0,2.135502,-3.00
 9181,0.481856\H,0,2.579482,-5.276386,0.485828\H,0,3.971519,-4.889909,3
 .182881\H,0,4.191817,-6.202016,2.066382\H,0,2.965623,-6.85691,4.102952
 \H,0,1.714584,-5.707921,3.766998\H,0,2.42081,-7.979938,1.860503\H,0,1.
 083167,-6.875737,1.704087\H,0,1.282803,-7.756555,5.112909\H,0,2.400793
 ,-8.949129,4.493245\H,0,0.803833,-9.441542,5.070336\H,0,-0.791126,-7.1
 75199,2.568533\H,0,-3.694341,-8.411254,4.116031\H,0,-3.26335,-8.265114
 ,2.416331\H,0,-2.973965,-6.912826,3.506178\H,0,2.020301,-10.714783,3.3
 75525\H,0,2.364817,-12.522234,1.986085\H,0,1.515206,-11.701659,0.68034
 9\H,0,0.598834,-12.478512,1.961671\H,0,4.82812,0.684785,-0.816437\H,0,
 3.710173,3.434604,-2.706288\H,0,4.588171,1.902533,-2.825678\H,0,5.2447
 71,3.226201,-1.873716\\Version=EM64L-G09RevA.02\State=1-A\HF=-1295.615
 8924\RMSD=6.512e-09\Dipole=2.4733584,0.0749611,-1.4300682\Quadrupole=1
 3.5659104,-23.8793368,10.3134264,-3.2222964,-1.5603968,-13.1648626\PG=
 C01 [X(C20H36N4O4)]\\@


 A people that values its privileges above its principles soon loses both.
 -- Dwight D. Eisenhower
 Job cpu time:  0 days  0 hours  4 minutes 55.9 seconds.
 File lengths (MBytes):  RWF=    132 Int=      0 D2E=      0 Chk=     10 Scr=      1
 Normal termination of Gaussian 09 at Thu Dec  5 19:32:51 2019.
