 Entering Gaussian System, Link 0=g09
 Input=CHI9_120.gau
 Output=CHI9_120.log
 Initial command:
 /home/marie/Utilities//g09/l1.exe /tmp/g09/Gau-15489.inp -scrdir=/tmp/g09/
 Entering Link 1 = /home/marie/Utilities//g09/l1.exe PID=     15491.
  
 Copyright (c) 1988,1990,1992,1993,1995,1998,2003,2009, Gaussian, Inc.
                  All Rights Reserved.
  
 This is part of the Gaussian(R) 09 program.  It is based on
 the Gaussian(R) 03 system (copyright 2003, Gaussian, Inc.),
 the Gaussian(R) 98 system (copyright 1998, Gaussian, Inc.),
 the Gaussian(R) 94 system (copyright 1995, Gaussian, Inc.),
 the Gaussian 92(TM) system (copyright 1992, Gaussian, Inc.),
 the Gaussian 90(TM) system (copyright 1990, Gaussian, Inc.),
 the Gaussian 88(TM) system (copyright 1988, Gaussian, Inc.),
 the Gaussian 86(TM) system (copyright 1986, Carnegie Mellon
 University), and the Gaussian 82(TM) system (copyright 1983,
 Carnegie Mellon University). Gaussian is a federally registered
 trademark of Gaussian, Inc.
  
 This software contains proprietary and confidential information,
 including trade secrets, belonging to Gaussian, Inc.
  
 This software is provided under written license and may be
 used, copied, transmitted, or stored only in accord with that
 written license.
  
 The following legend is applicable only to US Government
 contracts under FAR:
  
                    RESTRICTED RIGHTS LEGEND
  
 Use, reproduction and disclosure by the US Government is
 subject to restrictions as set forth in subparagraphs (a)
 and (c) of the Commercial Computer Software - Restricted
 Rights clause in FAR 52.227-19.
  
 Gaussian, Inc.
 340 Quinnipiac St., Bldg. 40, Wallingford CT 06492
  
  
 ---------------------------------------------------------------
 Warning -- This program may not be used in any manner that
 competes with the business of Gaussian, Inc. or will provide
 assistance to any competitor of Gaussian, Inc.  The licensee
 of this program is prohibited from giving any competitor of
 Gaussian, Inc. access to this program.  By using this program,
 the user acknowledges that Gaussian, Inc. is engaged in the
 business of creating and licensing software in the field of
 computational chemistry and represents and warrants to the
 licensee that it is not a competitor of Gaussian, Inc. and that
 it will not use this program in any manner prohibited above.
 ---------------------------------------------------------------
  

 Cite this work as:
 Gaussian 09, Revision A.02,
 M. J. Frisch, G. W. Trucks, H. B. Schlegel, G. E. Scuseria, 
 M. A. Robb, J. R. Cheeseman, G. Scalmani, V. Barone, B. Mennucci, 
 G. A. Petersson, H. Nakatsuji, M. Caricato, X. Li, H. P. Hratchian, 
 A. F. Izmaylov, J. Bloino, G. Zheng, J. L. Sonnenberg, M. Hada, 
 M. Ehara, K. Toyota, R. Fukuda, J. Hasegawa, M. Ishida, T. Nakajima, 
 Y. Honda, O. Kitao, H. Nakai, T. Vreven, J. A. Montgomery, Jr., 
 J. E. Peralta, F. Ogliaro, M. Bearpark, J. J. Heyd, E. Brothers, 
 K. N. Kudin, V. N. Staroverov, R. Kobayashi, J. Normand, 
 K. Raghavachari, A. Rendell, J. C. Burant, S. S. Iyengar, J. Tomasi, 
 M. Cossi, N. Rega, J. M. Millam, M. Klene, J. E. Knox, J. B. Cross, 
 V. Bakken, C. Adamo, J. Jaramillo, R. Gomperts, R. E. Stratmann, 
 O. Yazyev, A. J. Austin, R. Cammi, C. Pomelli, J. W. Ochterski, 
 R. L. Martin, K. Morokuma, V. G. Zakrzewski, G. A. Voth, 
 P. Salvador, J. J. Dannenberg, S. Dapprich, A. D. Daniels, 
 O. Farkas, J. B. Foresman, J. V. Ortiz, J. Cioslowski, 
 and D. J. Fox, Gaussian, Inc., Wallingford CT, 2009.
 
 ******************************************
 Gaussian 09:  EM64L-G09RevA.02 11-Jun-2009
                 5-Dec-2019 
 ******************************************
 %chk=CHI9_120
 %NoSave
 ---------------------------------
 #SP HF/6-31G* Geom=(ModRedundant)
 ---------------------------------
 1/18=120,38=1/1;
 2/12=2,17=6,18=5,40=1/2;
 3/5=1,6=6,7=1,11=9,16=1,25=1,30=1/1,2,3;
 4//1;
 5/5=2,38=5/2;
 6/7=2,8=2,9=2,10=2,28=1/1;
 99/5=1,9=1/99;
 ------------
 paramfit run
 ------------
 Symbolic Z-matrix:
 Charge =  0 Multiplicity = 1
 C-CT--0.3208          0.        0.        0. 
 N-N--0.5622           1.44819   0.        0. 
 C-C-0.8053            2.1232    0.47592   1.07237 
 O-O--0.6151           1.59018   0.69673   2.12445 
 C-CX-0.0839           3.65051   0.59414   0.92154 
 C-CU--0.3230          4.1989    1.54925   1.98685 
 C-CU--0.0657          4.30775  -0.80912   1.02398 
 C-CU--0.0109          4.13357  -1.62278   2.31907 
 C-CU-0.0816           2.83273  -2.4333    2.48497 
 C-CM--0.2354          2.57934  -3.42359   1.37258 
 C-CM--0.2653          2.83409  -4.72199   1.37554 
 C-CU-0.1214           3.44273  -5.53566   2.49234 
 C-CU--0.0354          2.42774  -6.37022   3.29413 
 C-CU--0.0984          1.69389  -7.40262   2.4278 
 C-CU-0.1300           0.77427  -8.42854   3.13945 
 C-CU--0.3561         -0.64777  -8.23979   2.58663 
 N-N--0.7186           1.24379  -9.77042   2.82253 
 C-C-0.8537            0.71282  -10.87307   3.42694 
 C-CT--0.3868          1.53713  -12.13292   3.29243 
 O-O--0.6323          -0.32893  -10.85171   4.02144 
 C-C-0.7903            0.89543  -8.22124   4.66623 
 O-O--0.6136           1.79912  -8.72611   5.27648 
 N-N--0.5650           0.01681  -7.37892   5.25146 
 C-CT--0.3231          0.04235  -7.17899   6.68589 
 N-N--0.7191           3.99741   1.07028  -0.42545 
 C-C-0.8539            3.58702   2.26716  -0.93409 
 C-CT--0.3903          4.32815   2.72766  -2.17214 
 O-O--0.6290           2.69713   2.90543  -0.4474 
 H-H1-0.1459          -0.40326   1.00615   0. 
 H-H1-0.1459          -0.36496  -0.516     0.87594 
 H-H1-0.1459          -0.34566  -0.52209  -0.88335 
 H-H-0.3572            1.90424   0.07091  -0.87936 
 H-HC-0.0997           3.93214   1.22176   2.98008 
 H-HC-0.0997           5.28092   1.59593   1.9075 
 H-HC-0.0997           3.79271   2.54059   1.8484 
 H-HC-0.0347           5.37458  -0.64325   0.89141 
 H-HC-0.0347           3.98464  -1.40332   0.17498 
 H-HC-0.0243           4.96157  -2.32476   2.35464 
 H-HC-0.0243           4.25012  -0.97572   3.18226 
 H-HC-0.0171           1.98572  -1.76405   2.56272 
 H-HC-0.0171           2.89564  -2.94811   3.43725 
 H-HA-0.1313           2.1355   -3.00918   0.48186 
 H-HA-0.1359           2.57948  -5.27639   0.48583 
 H-HC-0.0092           3.97152  -4.88991   3.18288 
 H-HC-0.0092           4.19182  -6.20202   2.06638 
 H-HC-0.0318           2.96562  -6.85691   4.10295 
 H-HC-0.0318           1.71458  -5.70792   3.767 
 H-HC-0.0435           2.42081  -7.97994   1.8605 
 H-HC-0.0435           1.08317  -6.87574   1.70409 
 H-HC-0.1066          -0.64965  -8.50556   1.53594 
 H-HC-0.1066          -0.96394  -7.20442   2.66039 
 H-HC-0.1066          -1.36046  -8.87162   3.09516 
 H-H-0.3529            2.21144  -9.84139   2.60495 
 H-HC-0.1047           0.90128  -12.99007   3.4538 
 H-HC-0.1047           2.30978  -12.12385   4.05535 
 H-HC-0.1047           2.01484  -12.20651   2.32147 
 H-H-0.3615           -0.8343   -7.18148   4.78036 
 H-H1-0.1469          -0.64986  -6.38594   6.93656 
 H-H1-0.1469           1.03588  -6.89074   6.99642 
 H-H1-0.1469          -0.23698  -8.07965   7.22306 
 H-H-0.3570            4.82812   0.68479  -0.81644 
 H-HC-0.1060           3.71017   3.4346   -2.70629 
 H-HC-0.1060           4.58817   1.90253  -2.82568 
 H-HC-0.1060           5.24477   3.2262   -1.87372 
 
 The following ModRedundant input section has been read:
 D    *   14   15    * F                                                       
 Stoichiometry    C20H36N4O4
 Framework group  C1[X(C20H36N4O4)]
 Deg. of freedom   186
 Full point group                 C1      NOp   1
 Largest Abelian subgroup         C1      NOp   1
 Largest concise Abelian subgroup C1      NOp   1
                         Standard orientation:                         
 ---------------------------------------------------------------------
 Center     Atomic      Atomic             Coordinates (Angstroms)
 Number     Number       Type             X           Y           Z
 ---------------------------------------------------------------------
      1          6    20001001       -3.958730    0.919205    2.875234
      2          7    20001014       -4.257491    0.203351    1.652311
      3          6    20001002       -4.477065    0.888274    0.505674
      4          8    20001024       -4.219498    2.054596    0.391232
      5          6    90000001       -4.951189    0.062635   -0.703836
      6          6    90000002       -5.587820    0.992517   -1.742037
      7          6    90000002       -3.761706   -0.732869   -1.307081
      8          6    90000002       -2.545492    0.039084   -1.849806
      9          6    90000002       -1.476191    0.493081   -0.836337
     10          6    20001004       -0.883750   -0.632949   -0.021874
     11          6    20001004        0.259141   -1.265578   -0.232443
     12          6    90000002        1.254431   -1.018911   -1.340732
     13          6    90000002        2.498869   -0.222259   -0.909127
     14          6    90000002        3.311199   -0.936393    0.179471
     15          6    90000002        4.681952   -0.331847    0.579729
     16          6    90000002        4.617383    0.016161    2.075781
     17          7    20001014        5.713897   -1.335861    0.359331
     18          6    20001002        7.039304   -1.036715    0.489198
     19          6    20001001        7.983403   -2.042424   -0.128890
     20          8    20001024        7.432769   -0.052137    1.050386
     21          6    20001002        4.975253    0.874118   -0.341330
     22          8    20001024        5.456714    0.702978   -1.428913
     23          7    20001014        4.576720    2.092698    0.083183
     24          6    20001001        4.865738    3.271385   -0.707620
     25          7    20001014       -5.909828   -0.967287   -0.277569
     26          6    20001002       -7.095802   -0.689860    0.335759
     27          6    20001001       -8.085069   -1.836263    0.370853
     28          8    20001024       -7.337134    0.377838    0.823529
     29          1    20001035       -4.801138    1.512967    3.211009
     30          1    20001035       -3.116727    1.576944    2.716701
     31          1    20001035       -3.701617    0.200036    3.642725
     32          1    20001029       -4.709969   -0.676553    1.737852
     33          1    20001034       -4.900392    1.766628   -2.047206
     34          1    20001034       -5.880433    0.414401   -2.613471
     35          1    20001034       -6.462163    1.474507   -1.329561
     36          1    20001034       -4.178579   -1.298054   -2.137745
     37          1    20001034       -3.431446   -1.464808   -0.576688
     38          1    20001034       -2.058671   -0.617794   -2.564742
     39          1    20001034       -2.877029    0.904857   -2.413627
     40          1    20001034       -1.891207    1.234453   -0.165896
     41          1    20001034       -0.698100    0.999021   -1.397081
     42          1    20001033       -1.470362   -0.942188    0.828049
     43          1    20001033        0.525074   -2.047354    0.461723
     44          1    20001034        0.781494   -0.491375   -2.160185
     45          1    20001034        1.570899   -1.980901   -1.742001
     46          1    20001034        3.105276   -0.051390   -1.794255
     47          1    20001034        2.194359    0.756777   -0.563306
     48          1    20001034        3.503214   -1.962187   -0.127794
     49          1    20001034        2.711220   -0.989469    1.080337
     50          1    20001034        4.511994   -0.902300    2.641381
     51          1    20001034        3.754721    0.635555    2.298370
     52          1    20001034        5.515193    0.515317    2.408227
     53          1    20001029        5.507025   -2.010816   -0.340919
     54          1    20001034        8.956910   -1.938931    0.325679
     55          1    20001034        8.070005   -1.828863   -1.190030
     56          1    20001034        7.628858   -3.060750   -0.011880
     57          1    20001029        4.413616    2.225293    1.053299
     58          1    20001035        4.362542    4.118931   -0.261099
     59          1    20001035        4.499123    3.134202   -1.714298
     60          1    20001035        5.930997    3.473162   -0.755200
     61          1    20001029       -5.856919   -1.832389   -0.767822
     62          1    20001034       -8.786003   -1.668084    1.175453
     63          1    20001034       -7.597514   -2.795318    0.505219
     64          1    20001034       -8.633311   -1.862379   -0.565390
 ---------------------------------------------------------------------
 Rotational constants (GHZ):      0.4358826      0.0464500      0.0460146
 Standard basis: 6-31G(d) (6D, 7F)
 There are   492 symmetry adapted basis functions of A   symmetry.
 Integral buffers will be    131072 words long.
 Raffenetti 1 integral format.
 Two-electron integral symmetry is turned on.
   492 basis functions,   928 primitive gaussians,   492 cartesian basis functions
   108 alpha electrons      108 beta electrons
       nuclear repulsion energy      2673.9061758801 Hartrees.
 NAtoms=   64 NActive=   64 NUniq=   64 SFac= 7.50D-01 NAtFMM=   80 NAOKFM=F Big=T
 One-electron integrals computed using PRISM.
 NBasis=   492 RedAO= T  NBF=   492
 NBsUse=   492 1.00D-06 NBFU=   492
 Harris functional with IExCor=  205 diagonalized for initial guess.
 ExpMin= 1.61D-01 ExpMax= 5.48D+03 ExpMxC= 8.25D+02 IAcc=1 IRadAn=         1 AccDes= 0.00D+00
 HarFok:  IExCor=  205 AccDes= 0.00D+00 IRadAn=         1 IDoV= 1
 ScaDFX=  1.000000  1.000000  1.000000  1.000000
 FoFCou: FMM=F IPFlag=           0 FMFlag=      100000 FMFlg1=           1
         NFxFlg=           0 DoJE=T BraDBF=F KetDBF=T FulRan=T
         Omega=  0.000000  0.000000  1.000000  0.000000  0.000000 ICntrl=     500 IOpCl=  0
         NMat0=    1 NMatS0=    1 NMatT0=    0 NMatD0=    1 NMtDS0=    0 NMtDT0=    0
         I1Cent=           4 NGrid=           0.
 Petite list used in FoFCou.
 Initial guess orbital symmetries:
       Occupied  (A) (A) (A) (A) (A) (A) (A) (A) (A) (A) (A) (A)
                 (A) (A) (A) (A) (A) (A) (A) (A) (A) (A) (A) (A)
                 (A) (A) (A) (A) (A) (A) (A) (A) (A) (A) (A) (A)
                 (A) (A) (A) (A) (A) (A) (A) (A) (A) (A) (A) (A)
                 (A) (A) (A) (A) (A) (A) (A) (A) (A) (A) (A) (A)
                 (A) (A) (A) (A) (A) (A) (A) (A) (A) (A) (A) (A)
                 (A) (A) (A) (A) (A) (A) (A) (A) (A) (A) (A) (A)
                 (A) (A) (A) (A) (A) (A) (A) (A) (A) (A) (A) (A)
                 (A) (A) (A) (A) (A) (A) (A) (A) (A) (A) (A) (A)
       Virtual   (A) (A) (A) (A) (A) (A) (A) (A) (A) (A) (A) (A)
                 (A) (A) (A) (A) (A) (A) (A) (A) (A) (A) (A) (A)
                 (A) (A) (A) (A) (A) (A) (A) (A) (A) (A) (A) (A)
                 (A) (A) (A) (A) (A) (A) (A) (A) (A) (A) (A) (A)
                 (A) (A) (A) (A) (A) (A) (A) (A) (A) (A) (A) (A)
                 (A) (A) (A) (A) (A) (A) (A) (A) (A) (A) (A) (A)
                 (A) (A) (A) (A) (A) (A) (A) (A) (A) (A) (A) (A)
                 (A) (A) (A) (A) (A) (A) (A) (A) (A) (A) (A) (A)
                 (A) (A) (A) (A) (A) (A) (A) (A) (A) (A) (A) (A)
                 (A) (A) (A) (A) (A) (A) (A) (A) (A) (A) (A) (A)
                 (A) (A) (A) (A) (A) (A) (A) (A) (A) (A) (A) (A)
                 (A) (A) (A) (A) (A) (A) (A) (A) (A) (A) (A) (A)
                 (A) (A) (A) (A) (A) (A) (A) (A) (A) (A) (A) (A)
                 (A) (A) (A) (A) (A) (A) (A) (A) (A) (A) (A) (A)
                 (A) (A) (A) (A) (A) (A) (A) (A) (A) (A) (A) (A)
                 (A) (A) (A) (A) (A) (A) (A) (A) (A) (A) (A) (A)
                 (A) (A) (A) (A) (A) (A) (A) (A) (A) (A) (A) (A)
                 (A) (A) (A) (A) (A) (A) (A) (A) (A) (A) (A) (A)
                 (A) (A) (A) (A) (A) (A) (A) (A) (A) (A) (A) (A)
                 (A) (A) (A) (A) (A) (A) (A) (A) (A) (A) (A) (A)
                 (A) (A) (A) (A) (A) (A) (A) (A) (A) (A) (A) (A)
                 (A) (A) (A) (A) (A) (A) (A) (A) (A) (A) (A) (A)
                 (A) (A) (A) (A) (A) (A) (A) (A) (A) (A) (A) (A)
                 (A) (A) (A) (A) (A) (A) (A) (A) (A) (A) (A) (A)
                 (A) (A) (A) (A) (A) (A) (A) (A) (A) (A) (A) (A)
                 (A) (A) (A) (A) (A) (A) (A) (A) (A) (A) (A) (A)
                 (A) (A) (A) (A) (A) (A) (A) (A) (A) (A) (A) (A)
                 (A) (A) (A) (A) (A) (A) (A) (A) (A) (A) (A) (A)
                 (A) (A) (A) (A) (A) (A) (A) (A) (A) (A) (A) (A)
                 (A) (A) (A) (A) (A) (A) (A) (A) (A) (A) (A) (A)
                 (A) (A) (A) (A) (A) (A) (A) (A) (A) (A) (A) (A)
                 (A) (A) (A) (A) (A) (A) (A) (A) (A) (A) (A) (A)
 The electronic state of the initial guess is 1-A.
 Requested convergence on RMS density matrix=1.00D-08 within 128 cycles.
 Requested convergence on MAX density matrix=1.00D-06.
 Requested convergence on             energy=1.00D-06.
 No special actions if energy rises.
 Integral accuracy reduced to 1.0D-05 until final iterations.
 Initial convergence to 1.0D-05 achieved.  Increase integral accuracy.
 SCF Done:  E(RHF) =  -1295.61355029     A.U. after   14 cycles
             Convg  =    0.6289D-08             -V/T =  2.0012

 **********************************************************************

            Population analysis using the SCF density.

 **********************************************************************

 Orbital symmetries:
       Occupied  (A) (A) (A) (A) (A) (A) (A) (A) (A) (A) (A) (A)
                 (A) (A) (A) (A) (A) (A) (A) (A) (A) (A) (A) (A)
                 (A) (A) (A) (A) (A) (A) (A) (A) (A) (A) (A) (A)
                 (A) (A) (A) (A) (A) (A) (A) (A) (A) (A) (A) (A)
                 (A) (A) (A) (A) (A) (A) (A) (A) (A) (A) (A) (A)
                 (A) (A) (A) (A) (A) (A) (A) (A) (A) (A) (A) (A)
                 (A) (A) (A) (A) (A) (A) (A) (A) (A) (A) (A) (A)
                 (A) (A) (A) (A) (A) (A) (A) (A) (A) (A) (A) (A)
                 (A) (A) (A) (A) (A) (A) (A) (A) (A) (A) (A) (A)
       Virtual   (A) (A) (A) (A) (A) (A) (A) (A) (A) (A) (A) (A)
                 (A) (A) (A) (A) (A) (A) (A) (A) (A) (A) (A) (A)
                 (A) (A) (A) (A) (A) (A) (A) (A) (A) (A) (A) (A)
                 (A) (A) (A) (A) (A) (A) (A) (A) (A) (A) (A) (A)
                 (A) (A) (A) (A) (A) (A) (A) (A) (A) (A) (A) (A)
                 (A) (A) (A) (A) (A) (A) (A) (A) (A) (A) (A) (A)
                 (A) (A) (A) (A) (A) (A) (A) (A) (A) (A) (A) (A)
                 (A) (A) (A) (A) (A) (A) (A) (A) (A) (A) (A) (A)
                 (A) (A) (A) (A) (A) (A) (A) (A) (A) (A) (A) (A)
                 (A) (A) (A) (A) (A) (A) (A) (A) (A) (A) (A) (A)
                 (A) (A) (A) (A) (A) (A) (A) (A) (A) (A) (A) (A)
                 (A) (A) (A) (A) (A) (A) (A) (A) (A) (A) (A) (A)
                 (A) (A) (A) (A) (A) (A) (A) (A) (A) (A) (A) (A)
                 (A) (A) (A) (A) (A) (A) (A) (A) (A) (A) (A) (A)
                 (A) (A) (A) (A) (A) (A) (A) (A) (A) (A) (A) (A)
                 (A) (A) (A) (A) (A) (A) (A) (A) (A) (A) (A) (A)
                 (A) (A) (A) (A) (A) (A) (A) (A) (A) (A) (A) (A)
                 (A) (A) (A) (A) (A) (A) (A) (A) (A) (A) (A) (A)
                 (A) (A) (A) (A) (A) (A) (A) (A) (A) (A) (A) (A)
                 (A) (A) (A) (A) (A) (A) (A) (A) (A) (A) (A) (A)
                 (A) (A) (A) (A) (A) (A) (A) (A) (A) (A) (A) (A)
                 (A) (A) (A) (A) (A) (A) (A) (A) (A) (A) (A) (A)
                 (A) (A) (A) (A) (A) (A) (A) (A) (A) (A) (A) (A)
                 (A) (A) (A) (A) (A) (A) (A) (A) (A) (A) (A) (A)
                 (A) (A) (A) (A) (A) (A) (A) (A) (A) (A) (A) (A)
                 (A) (A) (A) (A) (A) (A) (A) (A) (A) (A) (A) (A)
                 (A) (A) (A) (A) (A) (A) (A) (A) (A) (A) (A) (A)
                 (A) (A) (A) (A) (A) (A) (A) (A) (A) (A) (A) (A)
                 (A) (A) (A) (A) (A) (A) (A) (A) (A) (A) (A) (A)
                 (A) (A) (A) (A) (A) (A) (A) (A) (A) (A) (A) (A)
                 (A) (A) (A) (A) (A) (A) (A) (A) (A) (A) (A) (A)
                 (A) (A) (A) (A) (A) (A) (A) (A) (A) (A) (A) (A)
 The electronic state is 1-A.
 Alpha  occ. eigenvalues --  -20.53696 -20.52115 -20.51935 -20.51631 -15.59655
 Alpha  occ. eigenvalues --  -15.57938 -15.57669 -15.57614 -11.36013 -11.34296
 Alpha  occ. eigenvalues --  -11.33942 -11.33733 -11.29082 -11.28506 -11.25056
 Alpha  occ. eigenvalues --  -11.24994 -11.24393 -11.24043 -11.23282 -11.22739
 Alpha  occ. eigenvalues --  -11.22581 -11.22403 -11.22192 -11.21989 -11.21962
 Alpha  occ. eigenvalues --  -11.21751 -11.21676 -11.20910  -1.40635  -1.39452
 Alpha  occ. eigenvalues --   -1.38791  -1.38178  -1.25484  -1.23656  -1.22689
 Alpha  occ. eigenvalues --   -1.22158  -1.10775  -1.09328  -1.07223  -1.04142
 Alpha  occ. eigenvalues --   -1.01205  -0.99388  -0.98656  -0.95602  -0.95175
 Alpha  occ. eigenvalues --   -0.94656  -0.92235  -0.87346  -0.85781  -0.83122
 Alpha  occ. eigenvalues --   -0.81743  -0.79284  -0.78312  -0.77257  -0.76888
 Alpha  occ. eigenvalues --   -0.71735  -0.71280  -0.71072  -0.68970  -0.68103
 Alpha  occ. eigenvalues --   -0.66628  -0.65898  -0.64941  -0.64055  -0.63562
 Alpha  occ. eigenvalues --   -0.63080  -0.62606  -0.62246  -0.61520  -0.61140
 Alpha  occ. eigenvalues --   -0.60790  -0.59953  -0.59443  -0.58640  -0.58576
 Alpha  occ. eigenvalues --   -0.58263  -0.57596  -0.56867  -0.56404  -0.55737
 Alpha  occ. eigenvalues --   -0.55163  -0.55080  -0.54847  -0.54612  -0.54078
 Alpha  occ. eigenvalues --   -0.53149  -0.52860  -0.52331  -0.52136  -0.51292
 Alpha  occ. eigenvalues --   -0.51072  -0.50498  -0.49733  -0.49278  -0.48447
 Alpha  occ. eigenvalues --   -0.47920  -0.46969  -0.46701  -0.44466  -0.42920
 Alpha  occ. eigenvalues --   -0.42003  -0.41629  -0.41043  -0.39352  -0.38925
 Alpha  occ. eigenvalues --   -0.38403  -0.38254  -0.34489
 Alpha virt. eigenvalues --    0.17431   0.18756   0.19755   0.19941   0.20192
 Alpha virt. eigenvalues --    0.21410   0.21695   0.23166   0.23369   0.23770
 Alpha virt. eigenvalues --    0.25319   0.25444   0.26414   0.27214   0.27417
 Alpha virt. eigenvalues --    0.27784   0.28451   0.29067   0.29404   0.29464
 Alpha virt. eigenvalues --    0.29659   0.30068   0.30980   0.31209   0.31930
 Alpha virt. eigenvalues --    0.32028   0.32389   0.32725   0.32916   0.33400
 Alpha virt. eigenvalues --    0.33866   0.34150   0.34459   0.34880   0.35148
 Alpha virt. eigenvalues --    0.35373   0.35886   0.36560   0.37148   0.37283
 Alpha virt. eigenvalues --    0.38313   0.38676   0.38964   0.39106   0.39468
 Alpha virt. eigenvalues --    0.40186   0.40684   0.41718   0.42174   0.42773
 Alpha virt. eigenvalues --    0.44112   0.44821   0.45429   0.46911   0.47163
 Alpha virt. eigenvalues --    0.48697   0.49054   0.52173   0.52808   0.53662
 Alpha virt. eigenvalues --    0.54776   0.55080   0.57615   0.58871   0.60018
 Alpha virt. eigenvalues --    0.62270   0.63372   0.63750   0.69133   0.69765
 Alpha virt. eigenvalues --    0.70865   0.71699   0.72746   0.73024   0.73515
 Alpha virt. eigenvalues --    0.74215   0.74463   0.75116   0.75913   0.76547
 Alpha virt. eigenvalues --    0.76737   0.77254   0.77439   0.78035   0.78544
 Alpha virt. eigenvalues --    0.79661   0.80558   0.81066   0.82184   0.82537
 Alpha virt. eigenvalues --    0.83117   0.83776   0.84054   0.85448   0.86472
 Alpha virt. eigenvalues --    0.86970   0.87745   0.88923   0.90121   0.90620
 Alpha virt. eigenvalues --    0.91532   0.92742   0.93558   0.94192   0.94416
 Alpha virt. eigenvalues --    0.94795   0.96084   0.96719   0.97165   0.97687
 Alpha virt. eigenvalues --    0.98119   0.98797   0.99619   0.99881   1.00746
 Alpha virt. eigenvalues --    1.01664   1.01934   1.02492   1.03087   1.03613
 Alpha virt. eigenvalues --    1.03949   1.05178   1.05576   1.06399   1.07505
 Alpha virt. eigenvalues --    1.07989   1.08650   1.09229   1.09950   1.10986
 Alpha virt. eigenvalues --    1.11544   1.11974   1.12549   1.13193   1.14088
 Alpha virt. eigenvalues --    1.14342   1.14723   1.14925   1.15414   1.15858
 Alpha virt. eigenvalues --    1.15998   1.16294   1.16667   1.17203   1.17857
 Alpha virt. eigenvalues --    1.18298   1.18462   1.18491   1.19025   1.19416
 Alpha virt. eigenvalues --    1.19603   1.20264   1.20547   1.20668   1.20930
 Alpha virt. eigenvalues --    1.21832   1.22278   1.22471   1.22543   1.22940
 Alpha virt. eigenvalues --    1.23131   1.23923   1.24449   1.25182   1.25452
 Alpha virt. eigenvalues --    1.26015   1.26812   1.26907   1.27961   1.28100
 Alpha virt. eigenvalues --    1.28674   1.29874   1.30376   1.31603   1.32291
 Alpha virt. eigenvalues --    1.32907   1.33440   1.36047   1.36296   1.37430
 Alpha virt. eigenvalues --    1.38528   1.40307   1.41118   1.41624   1.43176
 Alpha virt. eigenvalues --    1.44026   1.45617   1.46392   1.46817   1.49998
 Alpha virt. eigenvalues --    1.50896   1.52186   1.53268   1.54558   1.56676
 Alpha virt. eigenvalues --    1.57124   1.58752   1.59196   1.60435   1.61780
 Alpha virt. eigenvalues --    1.63053   1.64269   1.65352   1.67668   1.68360
 Alpha virt. eigenvalues --    1.69652   1.70490   1.71639   1.72342   1.72687
 Alpha virt. eigenvalues --    1.73433   1.73963   1.78164   1.79289   1.79869
 Alpha virt. eigenvalues --    1.81324   1.82388   1.84528   1.86862   1.88693
 Alpha virt. eigenvalues --    1.89568   1.90253   1.91084   1.92973   1.94247
 Alpha virt. eigenvalues --    1.95412   1.96687   1.98312   1.99752   2.00429
 Alpha virt. eigenvalues --    2.01673   2.05773   2.06505   2.07105   2.08391
 Alpha virt. eigenvalues --    2.08850   2.09899   2.11100   2.11833   2.12362
 Alpha virt. eigenvalues --    2.12751   2.13579   2.14668   2.15267   2.15835
 Alpha virt. eigenvalues --    2.16815   2.17769   2.18549   2.19738   2.19925
 Alpha virt. eigenvalues --    2.20846   2.21913   2.22428   2.23154   2.24288
 Alpha virt. eigenvalues --    2.25478   2.26041   2.26547   2.27344   2.28616
 Alpha virt. eigenvalues --    2.29631   2.29813   2.31098   2.31253   2.32006
 Alpha virt. eigenvalues --    2.33580   2.34300   2.34647   2.35249   2.36421
 Alpha virt. eigenvalues --    2.37062   2.38013   2.38353   2.38906   2.40798
 Alpha virt. eigenvalues --    2.40928   2.42580   2.43740   2.44462   2.45062
 Alpha virt. eigenvalues --    2.45982   2.46403   2.47090   2.49614   2.50441
 Alpha virt. eigenvalues --    2.51350   2.53778   2.54134   2.54680   2.56499
 Alpha virt. eigenvalues --    2.56816   2.57270   2.58293   2.58928   2.61372
 Alpha virt. eigenvalues --    2.63024   2.64032   2.64716   2.65578   2.66771
 Alpha virt. eigenvalues --    2.69157   2.69397   2.70519   2.71220   2.71978
 Alpha virt. eigenvalues --    2.72848   2.73346   2.74382   2.74814   2.76397
 Alpha virt. eigenvalues --    2.77365   2.78278   2.78590   2.79296   2.79585
 Alpha virt. eigenvalues --    2.81449   2.81693   2.83691   2.84464   2.86319
 Alpha virt. eigenvalues --    2.87938   2.89922   2.90895   2.91402   2.96627
 Alpha virt. eigenvalues --    2.97785   2.98287   2.98735   2.99600   3.02085
 Alpha virt. eigenvalues --    3.03974   3.04356   3.05429   3.06434   3.07635
 Alpha virt. eigenvalues --    3.10518   3.11355   3.11910   3.13779   3.14144
 Alpha virt. eigenvalues --    3.16648   3.19356   3.22528   3.29554   3.30109
 Alpha virt. eigenvalues --    3.34461   3.34555   3.38702   3.40492   3.41027
 Alpha virt. eigenvalues --    3.42285   3.42926   3.53212   3.55879   3.57593
 Alpha virt. eigenvalues --    3.60088   4.38972   4.40854   4.44651   4.46797
 Alpha virt. eigenvalues --    4.48863   4.51250   4.55165   4.57519   4.61559
 Alpha virt. eigenvalues --    4.65124   4.67437   4.68370   4.68833   4.71074
 Alpha virt. eigenvalues --    4.71500   4.77496   4.80614   4.82325   4.83581
 Alpha virt. eigenvalues --    4.87953   4.89829   4.94871   4.95907   4.97457
 Alpha virt. eigenvalues --    5.00629   5.11899   5.21900   5.30599
          Condensed to atoms (all electrons):
 Mulliken atomic charges:
              1
     1  C   -0.279436
     2  N   -0.783248
     3  C    0.822108
     4  O   -0.628978
     5  C    0.102246
     6  C   -0.472711
     7  C   -0.334461
     8  C   -0.311585
     9  C   -0.372743
    10  C   -0.182076
    11  C   -0.176726
    12  C   -0.350650
    13  C   -0.341028
    14  C   -0.344487
    15  C    0.146966
    16  C   -0.519113
    17  N   -0.795916
    18  C    0.766763
    19  C   -0.594564
    20  O   -0.612549
    21  C    0.801483
    22  O   -0.639003
    23  N   -0.800034
    24  C   -0.275367
    25  N   -0.843080
    26  C    0.744535
    27  C   -0.588699
    28  O   -0.591925
    29  H    0.187131
    30  H    0.197083
    31  H    0.162767
    32  H    0.391616
    33  H    0.198479
    34  H    0.144457
    35  H    0.212469
    36  H    0.161747
    37  H    0.182526
    38  H    0.165619
    39  H    0.179217
    40  H    0.211750
    41  H    0.172705
    42  H    0.179982
    43  H    0.170064
    44  H    0.176527
    45  H    0.162112
    46  H    0.201142
    47  H    0.179875
    48  H    0.160516
    49  H    0.189152
    50  H    0.184743
    51  H    0.151569
    52  H    0.222977
    53  H    0.384378
    54  H    0.211436
    55  H    0.209218
    56  H    0.176523
    57  H    0.396933
    58  H    0.166755
    59  H    0.197177
    60  H    0.185341
    61  H    0.382810
    62  H    0.218663
    63  H    0.177349
    64  H    0.201471
 Sum of Mulliken atomic charges =   0.00000
 Mulliken charges with hydrogens summed into heavy atoms:
              1
     1  C    0.267545
     2  N   -0.391632
     3  C    0.822108
     4  O   -0.628978
     5  C    0.102246
     6  C    0.082693
     7  C    0.009812
     8  C    0.033252
     9  C    0.011712
    10  C   -0.002095
    11  C   -0.006662
    12  C   -0.012011
    13  C    0.039989
    14  C    0.005182
    15  C    0.146966
    16  C    0.040176
    17  N   -0.411538
    18  C    0.766763
    19  C    0.002613
    20  O   -0.612549
    21  C    0.801483
    22  O   -0.639003
    23  N   -0.403101
    24  C    0.273907
    25  N   -0.460270
    26  C    0.744535
    27  C    0.008783
    28  O   -0.591925
 Sum of Mulliken charges with hydrogens summed into heavy atoms =   0.00000
 Electronic spatial extent (au):  <R**2>=          22922.8378
 Charge=              0.0000 electrons
 Dipole moment (field-independent basis, Debye):
    X=             -3.0435    Y=             -6.6509    Z=             -0.2070  Tot=              7.3171
 Quadrupole moment (field-independent basis, Debye-Ang):
   XX=           -201.3752   YY=           -162.4277   ZZ=           -168.3991
   XY=             23.4754   XZ=              8.0323   YZ=              1.5642
 Traceless Quadrupole moment (field-independent basis, Debye-Ang):
   XX=            -23.9745   YY=             14.9730   ZZ=              9.0016
   XY=             23.4754   XZ=              8.0323   YZ=              1.5642
 Octapole moment (field-independent basis, Debye-Ang**2):
  XXX=           -257.3008  YYY=              3.1102  ZZZ=             28.8168  XYY=             74.4941
  XXY=           -315.7153  XXZ=            -89.8157  XZZ=            -53.0951  YZZ=              5.5043
  YYZ=             -1.5612  XYZ=             26.6132
 Hexadecapole moment (field-independent basis, Debye-Ang**3):
 XXXX=         -28382.9268 YYYY=          -1829.0379 ZZZZ=          -1626.8824 XXXY=            603.2484
 XXXZ=             73.0158 YYYX=            199.2390 YYYZ=             -0.5075 ZZZX=            -78.6123
 ZZZY=             16.3435 XXYY=          -4280.4587 XXZZ=          -4779.6327 YYZZ=           -569.6252
 XXYZ=             10.4081 YYXZ=            -13.0275 ZZXY=              7.0186
 N-N= 2.673906175880D+03 E-N=-8.379831931239D+03  KE= 1.294066664159D+03
 1\1\GINC-MOSURA\SP\RHF\6-31G(d)\C20H36N4O4\MARIE\05-Dec-2019\0\\#SP HF
 /6-31G* Geom=(ModRedundant)\\paramfit run\\0,1\C,0,0.,0.,0.\N,0,1.4481
 87,0.,0.\C,0,2.1232,0.47592,1.072365\O,0,1.590179,0.696732,2.124447\C,
 0,3.650505,0.594143,0.921539\C,0,4.198902,1.549248,1.986845\C,0,4.3077
 51,-0.809116,1.023981\C,0,4.133566,-1.622781,2.319066\C,0,2.832729,-2.
 433298,2.484965\C,0,2.579342,-3.423586,1.372579\C,0,2.834093,-4.721989
 ,1.375535\C,0,3.442731,-5.535663,2.492337\C,0,2.42774,-6.370218,3.2941
 33\C,0,1.693892,-7.402618,2.427801\C,0,0.774274,-8.428536,3.139447\C,0
 ,-0.647772,-8.239786,2.586628\N,0,1.243793,-9.770419,2.822534\C,0,0.71
 2824,-10.873065,3.426935\C,0,1.537133,-12.132917,3.292429\O,0,-0.32893
 1,-10.851713,4.021437\C,0,0.895434,-8.221243,4.666233\O,0,1.799115,-8.
 726107,5.276481\N,0,0.016814,-7.378917,5.251461\C,0,0.042347,-7.178992
 ,6.685888\N,0,3.997412,1.070275,-0.425452\C,0,3.587019,2.267163,-0.934
 086\C,0,4.328148,2.727659,-2.172145\O,0,2.697134,2.905425,-0.447397\H,
 0,-0.403259,1.006147,0.\H,0,-0.36496,-0.516002,0.875939\H,0,-0.345658,
 -0.522086,-0.883346\H,0,1.904244,0.070913,-0.879357\H,0,3.932135,1.221
 76,2.980082\H,0,5.28092,1.595925,1.9075\H,0,3.792711,2.540594,1.848395
 \H,0,5.374584,-0.64325,0.891407\H,0,3.984642,-1.403324,0.174983\H,0,4.
 961565,-2.324757,2.354635\H,0,4.250121,-0.975721,3.182259\H,0,1.985724
 ,-1.764045,2.562723\H,0,2.895638,-2.94811,3.437249\H,0,2.135502,-3.009
 181,0.481856\H,0,2.579482,-5.276386,0.485828\H,0,3.971519,-4.889909,3.
 182881\H,0,4.191817,-6.202016,2.066382\H,0,2.965623,-6.85691,4.102952\
 H,0,1.714584,-5.707921,3.766998\H,0,2.42081,-7.979938,1.860503\H,0,1.0
 83167,-6.875737,1.704087\H,0,-0.649647,-8.505561,1.535942\H,0,-0.96394
 3,-7.204423,2.660387\H,0,-1.360463,-8.871616,3.095157\H,0,2.211435,-9.
 84139,2.60495\H,0,0.901279,-12.990069,3.453798\H,0,2.309782,-12.123849
 ,4.055355\H,0,2.014836,-12.20651,2.321467\H,0,-0.834296,-7.181478,4.78
 0357\H,0,-0.649859,-6.385938,6.936561\H,0,1.035881,-6.890744,6.996419\
 H,0,-0.236978,-8.079647,7.223059\H,0,4.82812,0.684785,-0.816437\H,0,3.
 710173,3.434604,-2.706288\H,0,4.588171,1.902533,-2.825678\H,0,5.244771
 ,3.226201,-1.873716\\Version=EM64L-G09RevA.02\State=1-A\HF=-1295.61355
 03\RMSD=6.289e-09\Dipole=1.60924,0.0761557,-2.3857518\Quadrupole=13.34
 50394,-25.9149149,12.5698755,5.2747706,-7.1616968,1.3774769\PG=C01 [X(
 C20H36N4O4)]\\@


 THERE IS NO CURE FOR BIRTH AND DEATH SAVE TO ENJOY THE INTERVAL.

                               -- GEORGE SANTAYANA
 Job cpu time:  0 days  0 hours  5 minutes  0.5 seconds.
 File lengths (MBytes):  RWF=    132 Int=      0 D2E=      0 Chk=     10 Scr=      1
 Normal termination of Gaussian 09 at Thu Dec  5 19:50:36 2019.
