 Entering Gaussian System, Link 0=g09
 Input=CHI9_-40.gau
 Output=CHI9_-40.log
 Initial command:
 /home/marie/Utilities//g09/l1.exe /tmp/g09/Gau-14264.inp -scrdir=/tmp/g09/
 Entering Link 1 = /home/marie/Utilities//g09/l1.exe PID=     14266.
  
 Copyright (c) 1988,1990,1992,1993,1995,1998,2003,2009, Gaussian, Inc.
                  All Rights Reserved.
  
 This is part of the Gaussian(R) 09 program.  It is based on
 the Gaussian(R) 03 system (copyright 2003, Gaussian, Inc.),
 the Gaussian(R) 98 system (copyright 1998, Gaussian, Inc.),
 the Gaussian(R) 94 system (copyright 1995, Gaussian, Inc.),
 the Gaussian 92(TM) system (copyright 1992, Gaussian, Inc.),
 the Gaussian 90(TM) system (copyright 1990, Gaussian, Inc.),
 the Gaussian 88(TM) system (copyright 1988, Gaussian, Inc.),
 the Gaussian 86(TM) system (copyright 1986, Carnegie Mellon
 University), and the Gaussian 82(TM) system (copyright 1983,
 Carnegie Mellon University). Gaussian is a federally registered
 trademark of Gaussian, Inc.
  
 This software contains proprietary and confidential information,
 including trade secrets, belonging to Gaussian, Inc.
  
 This software is provided under written license and may be
 used, copied, transmitted, or stored only in accord with that
 written license.
  
 The following legend is applicable only to US Government
 contracts under FAR:
  
                    RESTRICTED RIGHTS LEGEND
  
 Use, reproduction and disclosure by the US Government is
 subject to restrictions as set forth in subparagraphs (a)
 and (c) of the Commercial Computer Software - Restricted
 Rights clause in FAR 52.227-19.
  
 Gaussian, Inc.
 340 Quinnipiac St., Bldg. 40, Wallingford CT 06492
  
  
 ---------------------------------------------------------------
 Warning -- This program may not be used in any manner that
 competes with the business of Gaussian, Inc. or will provide
 assistance to any competitor of Gaussian, Inc.  The licensee
 of this program is prohibited from giving any competitor of
 Gaussian, Inc. access to this program.  By using this program,
 the user acknowledges that Gaussian, Inc. is engaged in the
 business of creating and licensing software in the field of
 computational chemistry and represents and warrants to the
 licensee that it is not a competitor of Gaussian, Inc. and that
 it will not use this program in any manner prohibited above.
 ---------------------------------------------------------------
  

 Cite this work as:
 Gaussian 09, Revision A.02,
 M. J. Frisch, G. W. Trucks, H. B. Schlegel, G. E. Scuseria, 
 M. A. Robb, J. R. Cheeseman, G. Scalmani, V. Barone, B. Mennucci, 
 G. A. Petersson, H. Nakatsuji, M. Caricato, X. Li, H. P. Hratchian, 
 A. F. Izmaylov, J. Bloino, G. Zheng, J. L. Sonnenberg, M. Hada, 
 M. Ehara, K. Toyota, R. Fukuda, J. Hasegawa, M. Ishida, T. Nakajima, 
 Y. Honda, O. Kitao, H. Nakai, T. Vreven, J. A. Montgomery, Jr., 
 J. E. Peralta, F. Ogliaro, M. Bearpark, J. J. Heyd, E. Brothers, 
 K. N. Kudin, V. N. Staroverov, R. Kobayashi, J. Normand, 
 K. Raghavachari, A. Rendell, J. C. Burant, S. S. Iyengar, J. Tomasi, 
 M. Cossi, N. Rega, J. M. Millam, M. Klene, J. E. Knox, J. B. Cross, 
 V. Bakken, C. Adamo, J. Jaramillo, R. Gomperts, R. E. Stratmann, 
 O. Yazyev, A. J. Austin, R. Cammi, C. Pomelli, J. W. Ochterski, 
 R. L. Martin, K. Morokuma, V. G. Zakrzewski, G. A. Voth, 
 P. Salvador, J. J. Dannenberg, S. Dapprich, A. D. Daniels, 
 O. Farkas, J. B. Foresman, J. V. Ortiz, J. Cioslowski, 
 and D. J. Fox, Gaussian, Inc., Wallingford CT, 2009.
 
 ******************************************
 Gaussian 09:  EM64L-G09RevA.02 11-Jun-2009
                 5-Dec-2019 
 ******************************************
 %chk=CHI9_-40
 %NoSave
 ---------------------------------
 #SP HF/6-31G* Geom=(ModRedundant)
 ---------------------------------
 1/18=120,38=1/1;
 2/12=2,17=6,18=5,40=1/2;
 3/5=1,6=6,7=1,11=9,16=1,25=1,30=1/1,2,3;
 4//1;
 5/5=2,38=5/2;
 6/7=2,8=2,9=2,10=2,28=1/1;
 99/5=1,9=1/99;
 ------------
 paramfit run
 ------------
 Symbolic Z-matrix:
 Charge =  0 Multiplicity = 1
 C-CT--0.3208          0.        0.        0. 
 N-N--0.5622           1.44819   0.        0. 
 C-C-0.8053            2.1232    0.47592   1.07237 
 O-O--0.6151           1.59018   0.69673   2.12445 
 C-CX-0.0839           3.65051   0.59414   0.92154 
 C-CU--0.3230          4.1989    1.54925   1.98685 
 C-CU--0.0657          4.30775  -0.80912   1.02398 
 C-CU--0.0109          4.13357  -1.62278   2.31907 
 C-CU-0.0816           2.83273  -2.4333    2.48497 
 C-CM--0.2354          2.57934  -3.42359   1.37258 
 C-CM--0.2653          2.83409  -4.72199   1.37554 
 C-CU-0.1214           3.44273  -5.53566   2.49234 
 C-CU--0.0354          2.42774  -6.37022   3.29413 
 C-CU--0.0984          1.69389  -7.40262   2.4278 
 C-CU-0.1300           0.77427  -8.42854   3.13945 
 C-CU--0.3561          1.48049  -8.86697   4.43269 
 N-N--0.7186          -0.48288  -7.7723    3.47178 
 C-C-0.8537           -1.54067  -8.47157   3.9769 
 C-CT--0.3868         -2.8689   -7.75288   3.91309 
 O-O--0.6323          -1.43212  -9.5735    4.43854 
 C-C-0.7903            0.47285  -9.58299   2.15705 
 O-O--0.6136          -0.40739  -9.47448   1.34629 
 N-N--0.5650           1.29583  -10.65348   2.18361 
 C-CT--0.3231          1.04012  -11.7919   1.32523 
 N-N--0.7191           3.99741   1.07028  -0.42545 
 C-C-0.8539            3.58702   2.26716  -0.93409 
 C-CT--0.3903          4.32815   2.72766  -2.17214 
 O-O--0.6290           2.69713   2.90543  -0.4474 
 H-H1-0.1459          -0.40326   1.00615   0. 
 H-H1-0.1459          -0.36496  -0.516     0.87594 
 H-H1-0.1459          -0.34566  -0.52209  -0.88335 
 H-H-0.3572            1.90424   0.07091  -0.87936 
 H-HC-0.0997           3.93214   1.22176   2.98008 
 H-HC-0.0997           5.28092   1.59593   1.9075 
 H-HC-0.0997           3.79271   2.54059   1.8484 
 H-HC-0.0347           5.37458  -0.64325   0.89141 
 H-HC-0.0347           3.98464  -1.40332   0.17498 
 H-HC-0.0243           4.96157  -2.32476   2.35464 
 H-HC-0.0243           4.25012  -0.97572   3.18226 
 H-HC-0.0171           1.98572  -1.76405   2.56272 
 H-HC-0.0171           2.89564  -2.94811   3.43725 
 H-HA-0.1313           2.1355   -3.00918   0.48186 
 H-HA-0.1359           2.57948  -5.27639   0.48583 
 H-HC-0.0092           3.97152  -4.88991   3.18288 
 H-HC-0.0092           4.19182  -6.20202   2.06638 
 H-HC-0.0318           2.96562  -6.85691   4.10295 
 H-HC-0.0318           1.71458  -5.70792   3.767 
 H-HC-0.0435           2.42081  -7.97994   1.8605 
 H-HC-0.0435           1.08317  -6.87574   1.70409 
 H-HC-0.1066           1.55391  -8.01212   5.09482 
 H-HC-0.1066           2.49012  -9.21026   4.23222 
 H-HC-0.1066           0.93062  -9.64282   4.94402 
 H-H-0.3529           -0.73159  -7.00906   2.88498 
 H-HC-0.1047          -3.54069  -8.187     4.63787 
 H-HC-0.1047          -3.28967  -7.89101   2.92163 
 H-HC-0.1047          -2.76661  -6.68887   4.09699 
 H-H-0.3615            1.83835  -10.81252   2.9995 
 H-H1-0.1469           1.87079  -12.48044   1.40793 
 H-H1-0.1469           0.95522  -11.46375   0.29969 
 H-H1-0.1469           0.12324  -12.30426   1.59829 
 H-H-0.3570            4.82812   0.68479  -0.81644 
 H-HC-0.1060           3.71017   3.4346   -2.70629 
 H-HC-0.1060           4.58817   1.90253  -2.82568 
 H-HC-0.1060           5.24477   3.2262   -1.87372 
 
 The following ModRedundant input section has been read:
 D    *   14   15    * F                                                       
 Stoichiometry    C20H36N4O4
 Framework group  C1[X(C20H36N4O4)]
 Deg. of freedom   186
 Full point group                 C1      NOp   1
 Largest Abelian subgroup         C1      NOp   1
 Largest concise Abelian subgroup C1      NOp   1
                         Standard orientation:                         
 ---------------------------------------------------------------------
 Center     Atomic      Atomic             Coordinates (Angstroms)
 Number     Number       Type             X           Y           Z
 ---------------------------------------------------------------------
      1          6    20001001       -3.677325    2.700197    1.291849
      2          7    20001014       -4.075024    1.342970    0.980373
      3          6    20001002       -4.435862    1.018432   -0.283185
      4          8    20001024       -4.233034    1.742358   -1.218352
      5          6    90000001       -5.002597   -0.397690   -0.490053
      6          6    90000002       -5.775514   -0.452992   -1.811939
      7          6    90000002       -3.854191   -1.442588   -0.459144
      8          6    90000002       -2.728610   -1.346568   -1.504842
      9          6    90000002       -1.577276   -0.359512   -1.227738
     10          6    20001004       -0.864399   -0.598736    0.082550
     11          6    20001004        0.272410   -1.247856    0.275075
     12          6    90000002        1.138699   -1.911678   -0.768302
     13          6    90000002        2.391950   -1.106723   -1.156858
     14          6    90000002        3.337057   -0.872850    0.029308
     15          6    90000002        4.719455   -0.231064   -0.256583
     16          6    90000002        5.254270   -0.841699   -1.562166
     17          7    20001014        4.537757    1.203567   -0.430797
     18          6    20001002        5.603351    2.047860   -0.552176
     19          6    20001001        5.284678    3.510686   -0.343871
     20          8    20001024        6.711845    1.665288   -0.805204
     21          6    20001002        5.630322   -0.458114    0.971218
     22          8    20001024        5.569703    0.282092    1.915860
     23          7    20001014        6.405260   -1.564204    0.975021
     24          6    20001001        7.319516   -1.810815    2.071160
     25          7    20001014       -5.874994   -0.769999    0.633219
     26          6    20001002       -7.000482   -0.081402    0.977866
     27          6    20001001       -7.939535   -0.812120    1.915069
     28          8    20001024       -7.227965    1.026011    0.580338
     29          1    20001035       -4.501152    3.396463    1.184741
     30          1    20001035       -2.880044    3.007626    0.631129
     31          1    20001035       -3.317062    2.729222    2.312497
     32          1    20001029       -4.484748    0.808842    1.710523
     33          1    20001034       -5.151139   -0.160717   -2.642400
     34          1    20001034       -6.135738   -1.463934   -1.977687
     35          1    20001034       -6.619206    0.221005   -1.783013
     36          1    20001034       -4.334188   -2.409406   -0.593627
     37          1    20001034       -3.424590   -1.452469    0.537664
     38          1    20001034       -2.295114   -2.339436   -1.581741
     39          1    20001034       -3.147051   -1.124300   -2.480997
     40          1    20001034       -1.946984    0.657459   -1.248947
     41          1    20001034       -0.879621   -0.441488   -2.053808
     42          1    20001033       -1.348876   -0.182482    0.950955
     43          1    20001033        0.636101   -1.315316    1.288455
     44          1    20001034        0.565343   -2.101520   -1.667573
     45          1    20001034        1.446040   -2.887103   -0.393226
     46          1    20001034        2.897383   -1.646014   -1.953148
     47          1    20001034        2.090172   -0.159365   -1.583792
     48          1    20001034        3.532648   -1.820090    0.527321
     49          1    20001034        2.835456   -0.240077    0.752043
     50          1    20001034        4.604677   -0.542790   -2.376575
     51          1    20001034        5.246037   -1.925968   -1.521241
     52          1    20001034        6.253041   -0.496737   -1.783971
     53          1    20001029        3.751237    1.591948    0.037455
     54          1    20001034        6.052589    4.109374   -0.809646
     55          1    20001034        5.282054    3.715699    0.722473
     56          1    20001034        4.313994    3.778467   -0.746920
     57          1    20001029        6.606835   -2.003134    0.107831
     58          1    20001035        7.751516   -2.795003    1.945973
     59          1    20001035        6.783066   -1.778037    3.008054
     60          1    20001035        8.115103   -1.073517    2.105639
     61          1    20001029       -5.842257   -1.727921    0.903149
     62          1    20001034       -8.559271   -0.087739    2.423176
     63          1    20001034       -7.406989   -1.412859    2.643805
     64          1    20001034       -8.580141   -1.469605    1.336157
 ---------------------------------------------------------------------
 Rotational constants (GHZ):      0.3709613      0.0475014      0.0461027
 Standard basis: 6-31G(d) (6D, 7F)
 There are   492 symmetry adapted basis functions of A   symmetry.
 Integral buffers will be    131072 words long.
 Raffenetti 1 integral format.
 Two-electron integral symmetry is turned on.
   492 basis functions,   928 primitive gaussians,   492 cartesian basis functions
   108 alpha electrons      108 beta electrons
       nuclear repulsion energy      2660.8350762122 Hartrees.
 NAtoms=   64 NActive=   64 NUniq=   64 SFac= 7.50D-01 NAtFMM=   80 NAOKFM=F Big=T
 One-electron integrals computed using PRISM.
 NBasis=   492 RedAO= T  NBF=   492
 NBsUse=   492 1.00D-06 NBFU=   492
 Harris functional with IExCor=  205 diagonalized for initial guess.
 ExpMin= 1.61D-01 ExpMax= 5.48D+03 ExpMxC= 8.25D+02 IAcc=1 IRadAn=         1 AccDes= 0.00D+00
 HarFok:  IExCor=  205 AccDes= 0.00D+00 IRadAn=         1 IDoV= 1
 ScaDFX=  1.000000  1.000000  1.000000  1.000000
 FoFCou: FMM=F IPFlag=           0 FMFlag=      100000 FMFlg1=           1
         NFxFlg=           0 DoJE=T BraDBF=F KetDBF=T FulRan=T
         Omega=  0.000000  0.000000  1.000000  0.000000  0.000000 ICntrl=     500 IOpCl=  0
         NMat0=    1 NMatS0=    1 NMatT0=    0 NMatD0=    1 NMtDS0=    0 NMtDT0=    0
         I1Cent=           4 NGrid=           0.
 Petite list used in FoFCou.
 Initial guess orbital symmetries:
       Occupied  (A) (A) (A) (A) (A) (A) (A) (A) (A) (A) (A) (A)
                 (A) (A) (A) (A) (A) (A) (A) (A) (A) (A) (A) (A)
                 (A) (A) (A) (A) (A) (A) (A) (A) (A) (A) (A) (A)
                 (A) (A) (A) (A) (A) (A) (A) (A) (A) (A) (A) (A)
                 (A) (A) (A) (A) (A) (A) (A) (A) (A) (A) (A) (A)
                 (A) (A) (A) (A) (A) (A) (A) (A) (A) (A) (A) (A)
                 (A) (A) (A) (A) (A) (A) (A) (A) (A) (A) (A) (A)
                 (A) (A) (A) (A) (A) (A) (A) (A) (A) (A) (A) (A)
                 (A) (A) (A) (A) (A) (A) (A) (A) (A) (A) (A) (A)
       Virtual   (A) (A) (A) (A) (A) (A) (A) (A) (A) (A) (A) (A)
                 (A) (A) (A) (A) (A) (A) (A) (A) (A) (A) (A) (A)
                 (A) (A) (A) (A) (A) (A) (A) (A) (A) (A) (A) (A)
                 (A) (A) (A) (A) (A) (A) (A) (A) (A) (A) (A) (A)
                 (A) (A) (A) (A) (A) (A) (A) (A) (A) (A) (A) (A)
                 (A) (A) (A) (A) (A) (A) (A) (A) (A) (A) (A) (A)
                 (A) (A) (A) (A) (A) (A) (A) (A) (A) (A) (A) (A)
                 (A) (A) (A) (A) (A) (A) (A) (A) (A) (A) (A) (A)
                 (A) (A) (A) (A) (A) (A) (A) (A) (A) (A) (A) (A)
                 (A) (A) (A) (A) (A) (A) (A) (A) (A) (A) (A) (A)
                 (A) (A) (A) (A) (A) (A) (A) (A) (A) (A) (A) (A)
                 (A) (A) (A) (A) (A) (A) (A) (A) (A) (A) (A) (A)
                 (A) (A) (A) (A) (A) (A) (A) (A) (A) (A) (A) (A)
                 (A) (A) (A) (A) (A) (A) (A) (A) (A) (A) (A) (A)
                 (A) (A) (A) (A) (A) (A) (A) (A) (A) (A) (A) (A)
                 (A) (A) (A) (A) (A) (A) (A) (A) (A) (A) (A) (A)
                 (A) (A) (A) (A) (A) (A) (A) (A) (A) (A) (A) (A)
                 (A) (A) (A) (A) (A) (A) (A) (A) (A) (A) (A) (A)
                 (A) (A) (A) (A) (A) (A) (A) (A) (A) (A) (A) (A)
                 (A) (A) (A) (A) (A) (A) (A) (A) (A) (A) (A) (A)
                 (A) (A) (A) (A) (A) (A) (A) (A) (A) (A) (A) (A)
                 (A) (A) (A) (A) (A) (A) (A) (A) (A) (A) (A) (A)
                 (A) (A) (A) (A) (A) (A) (A) (A) (A) (A) (A) (A)
                 (A) (A) (A) (A) (A) (A) (A) (A) (A) (A) (A) (A)
                 (A) (A) (A) (A) (A) (A) (A) (A) (A) (A) (A) (A)
                 (A) (A) (A) (A) (A) (A) (A) (A) (A) (A) (A) (A)
                 (A) (A) (A) (A) (A) (A) (A) (A) (A) (A) (A) (A)
                 (A) (A) (A) (A) (A) (A) (A) (A) (A) (A) (A) (A)
                 (A) (A) (A) (A) (A) (A) (A) (A) (A) (A) (A) (A)
                 (A) (A) (A) (A) (A) (A) (A) (A) (A) (A) (A) (A)
                 (A) (A) (A) (A) (A) (A) (A) (A) (A) (A) (A) (A)
                 (A) (A) (A) (A) (A) (A) (A) (A) (A) (A) (A) (A)
 The electronic state of the initial guess is 1-A.
 Requested convergence on RMS density matrix=1.00D-08 within 128 cycles.
 Requested convergence on MAX density matrix=1.00D-06.
 Requested convergence on             energy=1.00D-06.
 No special actions if energy rises.
 Integral accuracy reduced to 1.0D-05 until final iterations.
 Initial convergence to 1.0D-05 achieved.  Increase integral accuracy.
 SCF Done:  E(RHF) =  -1295.61865401     A.U. after   14 cycles
             Convg  =    0.6489D-08             -V/T =  2.0012

 **********************************************************************

            Population analysis using the SCF density.

 **********************************************************************

 Orbital symmetries:
       Occupied  (A) (A) (A) (A) (A) (A) (A) (A) (A) (A) (A) (A)
                 (A) (A) (A) (A) (A) (A) (A) (A) (A) (A) (A) (A)
                 (A) (A) (A) (A) (A) (A) (A) (A) (A) (A) (A) (A)
                 (A) (A) (A) (A) (A) (A) (A) (A) (A) (A) (A) (A)
                 (A) (A) (A) (A) (A) (A) (A) (A) (A) (A) (A) (A)
                 (A) (A) (A) (A) (A) (A) (A) (A) (A) (A) (A) (A)
                 (A) (A) (A) (A) (A) (A) (A) (A) (A) (A) (A) (A)
                 (A) (A) (A) (A) (A) (A) (A) (A) (A) (A) (A) (A)
                 (A) (A) (A) (A) (A) (A) (A) (A) (A) (A) (A) (A)
       Virtual   (A) (A) (A) (A) (A) (A) (A) (A) (A) (A) (A) (A)
                 (A) (A) (A) (A) (A) (A) (A) (A) (A) (A) (A) (A)
                 (A) (A) (A) (A) (A) (A) (A) (A) (A) (A) (A) (A)
                 (A) (A) (A) (A) (A) (A) (A) (A) (A) (A) (A) (A)
                 (A) (A) (A) (A) (A) (A) (A) (A) (A) (A) (A) (A)
                 (A) (A) (A) (A) (A) (A) (A) (A) (A) (A) (A) (A)
                 (A) (A) (A) (A) (A) (A) (A) (A) (A) (A) (A) (A)
                 (A) (A) (A) (A) (A) (A) (A) (A) (A) (A) (A) (A)
                 (A) (A) (A) (A) (A) (A) (A) (A) (A) (A) (A) (A)
                 (A) (A) (A) (A) (A) (A) (A) (A) (A) (A) (A) (A)
                 (A) (A) (A) (A) (A) (A) (A) (A) (A) (A) (A) (A)
                 (A) (A) (A) (A) (A) (A) (A) (A) (A) (A) (A) (A)
                 (A) (A) (A) (A) (A) (A) (A) (A) (A) (A) (A) (A)
                 (A) (A) (A) (A) (A) (A) (A) (A) (A) (A) (A) (A)
                 (A) (A) (A) (A) (A) (A) (A) (A) (A) (A) (A) (A)
                 (A) (A) (A) (A) (A) (A) (A) (A) (A) (A) (A) (A)
                 (A) (A) (A) (A) (A) (A) (A) (A) (A) (A) (A) (A)
                 (A) (A) (A) (A) (A) (A) (A) (A) (A) (A) (A) (A)
                 (A) (A) (A) (A) (A) (A) (A) (A) (A) (A) (A) (A)
                 (A) (A) (A) (A) (A) (A) (A) (A) (A) (A) (A) (A)
                 (A) (A) (A) (A) (A) (A) (A) (A) (A) (A) (A) (A)
                 (A) (A) (A) (A) (A) (A) (A) (A) (A) (A) (A) (A)
                 (A) (A) (A) (A) (A) (A) (A) (A) (A) (A) (A) (A)
                 (A) (A) (A) (A) (A) (A) (A) (A) (A) (A) (A) (A)
                 (A) (A) (A) (A) (A) (A) (A) (A) (A) (A) (A) (A)
                 (A) (A) (A) (A) (A) (A) (A) (A) (A) (A) (A) (A)
                 (A) (A) (A) (A) (A) (A) (A) (A) (A) (A) (A) (A)
                 (A) (A) (A) (A) (A) (A) (A) (A) (A) (A) (A) (A)
                 (A) (A) (A) (A) (A) (A) (A) (A) (A) (A) (A) (A)
                 (A) (A) (A) (A) (A) (A) (A) (A) (A) (A) (A) (A)
                 (A) (A) (A) (A) (A) (A) (A) (A) (A) (A) (A) (A)
                 (A) (A) (A) (A) (A) (A) (A) (A) (A) (A) (A) (A)
 The electronic state is 1-A.
 Alpha  occ. eigenvalues --  -20.53726 -20.51986 -20.51976 -20.51741 -15.59697
 Alpha  occ. eigenvalues --  -15.58002 -15.57647 -15.57470 -11.36042 -11.34165
 Alpha  occ. eigenvalues --  -11.33992 -11.33796 -11.29148 -11.28548 -11.25165
 Alpha  occ. eigenvalues --  -11.24997 -11.24408 -11.24143 -11.23455 -11.22896
 Alpha  occ. eigenvalues --  -11.22857 -11.22792 -11.22387 -11.22377 -11.22192
 Alpha  occ. eigenvalues --  -11.21864 -11.21654 -11.20977  -1.40667  -1.39361
 Alpha  occ. eigenvalues --   -1.38841  -1.38093  -1.25529  -1.23502  -1.22716
 Alpha  occ. eigenvalues --   -1.22191  -1.11022  -1.09509  -1.07312  -1.04206
 Alpha  occ. eigenvalues --   -1.01230  -0.99398  -0.98540  -0.95627  -0.95283
 Alpha  occ. eigenvalues --   -0.94594  -0.92737  -0.87997  -0.86163  -0.82592
 Alpha  occ. eigenvalues --   -0.80922  -0.79437  -0.78843  -0.77293  -0.76790
 Alpha  occ. eigenvalues --   -0.71994  -0.71309  -0.70997  -0.69029  -0.68273
 Alpha  occ. eigenvalues --   -0.66658  -0.65945  -0.65313  -0.64182  -0.63812
 Alpha  occ. eigenvalues --   -0.62896  -0.62547  -0.62054  -0.61476  -0.61152
 Alpha  occ. eigenvalues --   -0.60919  -0.60024  -0.59249  -0.59084  -0.58406
 Alpha  occ. eigenvalues --   -0.58309  -0.58105  -0.56860  -0.56708  -0.55976
 Alpha  occ. eigenvalues --   -0.55437  -0.55225  -0.54647  -0.54404  -0.53725
 Alpha  occ. eigenvalues --   -0.53326  -0.52974  -0.52820  -0.52268  -0.51186
 Alpha  occ. eigenvalues --   -0.50959  -0.50385  -0.49798  -0.49212  -0.48772
 Alpha  occ. eigenvalues --   -0.48310  -0.47152  -0.47075  -0.44634  -0.42961
 Alpha  occ. eigenvalues --   -0.42056  -0.41627  -0.40962  -0.39397  -0.38899
 Alpha  occ. eigenvalues --   -0.38439  -0.38338  -0.34732
 Alpha virt. eigenvalues --    0.17245   0.18727   0.19894   0.19993   0.20121
 Alpha virt. eigenvalues --    0.21183   0.22027   0.23089   0.23456   0.23793
 Alpha virt. eigenvalues --    0.25173   0.25243   0.26410   0.27042   0.27368
 Alpha virt. eigenvalues --    0.27904   0.28088   0.28904   0.29331   0.29435
 Alpha virt. eigenvalues --    0.29565   0.30256   0.30533   0.31097   0.31633
 Alpha virt. eigenvalues --    0.31946   0.32167   0.32473   0.32885   0.33116
 Alpha virt. eigenvalues --    0.33859   0.34200   0.34589   0.34819   0.35004
 Alpha virt. eigenvalues --    0.35786   0.36054   0.36452   0.36557   0.37213
 Alpha virt. eigenvalues --    0.37770   0.38443   0.38859   0.39418   0.39442
 Alpha virt. eigenvalues --    0.40465   0.41137   0.41282   0.42352   0.43650
 Alpha virt. eigenvalues --    0.43973   0.44726   0.45362   0.45704   0.46795
 Alpha virt. eigenvalues --    0.48532   0.48774   0.49839   0.51933   0.52625
 Alpha virt. eigenvalues --    0.53734   0.55010   0.57187   0.58785   0.59869
 Alpha virt. eigenvalues --    0.61826   0.63320   0.64160   0.68710   0.70687
 Alpha virt. eigenvalues --    0.71027   0.71537   0.72056   0.73143   0.73481
 Alpha virt. eigenvalues --    0.73982   0.74237   0.74731   0.75430   0.76428
 Alpha virt. eigenvalues --    0.76688   0.77145   0.77537   0.78539   0.79019
 Alpha virt. eigenvalues --    0.80086   0.80307   0.80710   0.80811   0.82110
 Alpha virt. eigenvalues --    0.83065   0.83601   0.83848   0.85322   0.86299
 Alpha virt. eigenvalues --    0.86989   0.87707   0.89206   0.89670   0.90576
 Alpha virt. eigenvalues --    0.91819   0.92090   0.93617   0.93864   0.94376
 Alpha virt. eigenvalues --    0.94848   0.95973   0.96787   0.97355   0.97805
 Alpha virt. eigenvalues --    0.98148   0.98544   0.99502   1.00017   1.00980
 Alpha virt. eigenvalues --    1.01391   1.01680   1.02019   1.02896   1.03748
 Alpha virt. eigenvalues --    1.04082   1.04468   1.05538   1.06085   1.07299
 Alpha virt. eigenvalues --    1.07922   1.08342   1.08852   1.10900   1.10941
 Alpha virt. eigenvalues --    1.11812   1.11976   1.13162   1.13345   1.14215
 Alpha virt. eigenvalues --    1.14298   1.14668   1.15108   1.15821   1.15874
 Alpha virt. eigenvalues --    1.16227   1.16409   1.16971   1.17012   1.17592
 Alpha virt. eigenvalues --    1.17950   1.18217   1.18360   1.19043   1.19210
 Alpha virt. eigenvalues --    1.19462   1.20030   1.20137   1.20509   1.21178
 Alpha virt. eigenvalues --    1.21958   1.22206   1.22448   1.22746   1.22902
 Alpha virt. eigenvalues --    1.23081   1.23642   1.24000   1.24154   1.25100
 Alpha virt. eigenvalues --    1.25489   1.26259   1.26807   1.27300   1.28149
 Alpha virt. eigenvalues --    1.28675   1.29668   1.31426   1.31928   1.32674
 Alpha virt. eigenvalues --    1.33385   1.35076   1.35749   1.36170   1.37662
 Alpha virt. eigenvalues --    1.38012   1.39339   1.40524   1.41641   1.43564
 Alpha virt. eigenvalues --    1.43787   1.44140   1.45292   1.46552   1.49019
 Alpha virt. eigenvalues --    1.50354   1.51148   1.53272   1.53760   1.54676
 Alpha virt. eigenvalues --    1.56634   1.57363   1.59605   1.60117   1.60989
 Alpha virt. eigenvalues --    1.61843   1.63904   1.64908   1.66179   1.68312
 Alpha virt. eigenvalues --    1.69355   1.70782   1.71575   1.72353   1.73528
 Alpha virt. eigenvalues --    1.73669   1.74425   1.78530   1.79139   1.79693
 Alpha virt. eigenvalues --    1.81182   1.82783   1.83944   1.86600   1.87210
 Alpha virt. eigenvalues --    1.88958   1.89775   1.92243   1.93443   1.94227
 Alpha virt. eigenvalues --    1.96197   1.96657   1.98720   1.99607   2.00319
 Alpha virt. eigenvalues --    2.01534   2.05509   2.05863   2.07216   2.07642
 Alpha virt. eigenvalues --    2.08016   2.09777   2.10970   2.11727   2.12227
 Alpha virt. eigenvalues --    2.12520   2.13178   2.13983   2.14301   2.15814
 Alpha virt. eigenvalues --    2.16475   2.17354   2.18204   2.18959   2.19283
 Alpha virt. eigenvalues --    2.20547   2.20935   2.21828   2.22993   2.23825
 Alpha virt. eigenvalues --    2.24913   2.25750   2.26413   2.27217   2.27901
 Alpha virt. eigenvalues --    2.28649   2.29224   2.29728   2.30372   2.31279
 Alpha virt. eigenvalues --    2.33689   2.34466   2.34775   2.35040   2.35598
 Alpha virt. eigenvalues --    2.36218   2.36398   2.38062   2.38298   2.38743
 Alpha virt. eigenvalues --    2.40721   2.40950   2.42677   2.44240   2.44901
 Alpha virt. eigenvalues --    2.45154   2.45734   2.46594   2.48488   2.49930
 Alpha virt. eigenvalues --    2.51360   2.52329   2.54281   2.54705   2.55245
 Alpha virt. eigenvalues --    2.56690   2.56905   2.58081   2.58573   2.61288
 Alpha virt. eigenvalues --    2.62728   2.62853   2.64475   2.65035   2.65892
 Alpha virt. eigenvalues --    2.66535   2.69199   2.69672   2.70560   2.71222
 Alpha virt. eigenvalues --    2.72311   2.74040   2.74629   2.75218   2.76431
 Alpha virt. eigenvalues --    2.76987   2.78042   2.78576   2.79063   2.79471
 Alpha virt. eigenvalues --    2.81295   2.82903   2.83555   2.84389   2.86646
 Alpha virt. eigenvalues --    2.87166   2.88107   2.90921   2.92037   2.95753
 Alpha virt. eigenvalues --    2.96724   2.97451   2.98242   2.98261   3.01611
 Alpha virt. eigenvalues --    3.02940   3.04287   3.05039   3.06376   3.06971
 Alpha virt. eigenvalues --    3.08073   3.11243   3.12205   3.13842   3.16043
 Alpha virt. eigenvalues --    3.16873   3.19256   3.22339   3.29498   3.30145
 Alpha virt. eigenvalues --    3.34497   3.34540   3.38664   3.40366   3.40856
 Alpha virt. eigenvalues --    3.41919   3.42879   3.53171   3.55554   3.57883
 Alpha virt. eigenvalues --    3.60045   4.38230   4.40815   4.44611   4.46756
 Alpha virt. eigenvalues --    4.48650   4.51325   4.54891   4.57338   4.61531
 Alpha virt. eigenvalues --    4.63474   4.65915   4.67435   4.68419   4.70719
 Alpha virt. eigenvalues --    4.71455   4.77329   4.78982   4.82388   4.83980
 Alpha virt. eigenvalues --    4.87178   4.87907   4.93694   4.94644   4.97486
 Alpha virt. eigenvalues --    5.00145   5.11827   5.21823   5.25754
          Condensed to atoms (all electrons):
 Mulliken atomic charges:
              1
     1  C   -0.279716
     2  N   -0.783373
     3  C    0.821842
     4  O   -0.629031
     5  C    0.102395
     6  C   -0.472734
     7  C   -0.334614
     8  C   -0.311447
     9  C   -0.372823
    10  C   -0.181478
    11  C   -0.180341
    12  C   -0.350936
    13  C   -0.307809
    14  C   -0.335791
    15  C    0.105696
    16  C   -0.524182
    17  N   -0.784113
    18  C    0.766429
    19  C   -0.594602
    20  O   -0.614638
    21  C    0.806643
    22  O   -0.633780
    23  N   -0.803816
    24  C   -0.274569
    25  N   -0.843042
    26  C    0.744532
    27  C   -0.588764
    28  O   -0.591782
    29  H    0.187370
    30  H    0.196738
    31  H    0.163744
    32  H    0.391912
    33  H    0.198152
    34  H    0.144367
    35  H    0.212853
    36  H    0.161896
    37  H    0.183105
    38  H    0.164810
    39  H    0.179417
    40  H    0.212874
    41  H    0.170698
    42  H    0.182451
    43  H    0.176365
    44  H    0.175799
    45  H    0.164985
    46  H    0.169811
    47  H    0.173979
    48  H    0.178791
    49  H    0.181719
    50  H    0.192809
    51  H    0.147014
    52  H    0.226606
    53  H    0.384669
    54  H    0.210894
    55  H    0.208781
    56  H    0.178755
    57  H    0.395825
    58  H    0.164355
    59  H    0.197903
    60  H    0.185638
    61  H    0.382863
    62  H    0.218924
    63  H    0.177605
    64  H    0.201364
 Sum of Mulliken atomic charges =   0.00000
 Mulliken charges with hydrogens summed into heavy atoms:
              1
     1  C    0.268136
     2  N   -0.391461
     3  C    0.821842
     4  O   -0.629031
     5  C    0.102395
     6  C    0.082639
     7  C    0.010387
     8  C    0.032780
     9  C    0.010750
    10  C    0.000973
    11  C   -0.003976
    12  C   -0.010152
    13  C    0.035981
    14  C    0.024719
    15  C    0.105696
    16  C    0.042247
    17  N   -0.399444
    18  C    0.766429
    19  C    0.003828
    20  O   -0.614638
    21  C    0.806643
    22  O   -0.633780
    23  N   -0.407991
    24  C    0.273329
    25  N   -0.460178
    26  C    0.744532
    27  C    0.009128
    28  O   -0.591782
 Sum of Mulliken charges with hydrogens summed into heavy atoms =   0.00000
 Electronic spatial extent (au):  <R**2>=          22901.5141
 Charge=              0.0000 electrons
 Dipole moment (field-independent basis, Debye):
    X=             -2.6682    Y=             -6.6147    Z=              2.1984  Tot=              7.4637
 Quadrupole moment (field-independent basis, Debye-Ang):
   XX=           -194.6880   YY=           -162.7117   ZZ=           -172.6796
   XY=             11.3469   XZ=            -22.0194   YZ=              4.0373
 Traceless Quadrupole moment (field-independent basis, Debye-Ang):
   XX=            -17.9949   YY=             13.9814   ZZ=              4.0135
   XY=             11.3469   XZ=            -22.0194   YZ=              4.0373
 Octapole moment (field-independent basis, Debye-Ang**2):
  XXX=           -175.5762  YYY=             31.7264  ZZZ=             13.7791  XYY=             62.4300
  XXY=           -349.2039  XXZ=            115.3646  XZZ=            -49.7138  YZZ=             -8.3836
  YYZ=             20.3787  XYZ=            -15.9281
 Hexadecapole moment (field-independent basis, Debye-Ang**3):
 XXXX=         -27122.1483 YYYY=          -2361.8548 ZZZZ=          -1597.0818 XXXY=            116.2873
 XXXZ=           -393.9115 YYYX=            107.4014 YYYZ=              9.6473 ZZZX=           -102.4844
 ZZZY=            -14.4482 XXYY=          -4503.9303 XXZZ=          -4542.3521 YYZZ=           -679.5773
 XXYZ=            -55.6188 YYXZ=            -39.8255 ZZXY=            -44.4783
 N-N= 2.660835076212D+03 E-N=-8.353501851296D+03  KE= 1.294024191194D+03
 1\1\GINC-MOSURA\SP\RHF\6-31G(d)\C20H36N4O4\MARIE\05-Dec-2019\0\\#SP HF
 /6-31G* Geom=(ModRedundant)\\paramfit run\\0,1\C,0,0.,0.,0.\N,0,1.4481
 87,0.,0.\C,0,2.1232,0.47592,1.072365\O,0,1.590179,0.696732,2.124447\C,
 0,3.650505,0.594143,0.921539\C,0,4.198902,1.549248,1.986845\C,0,4.3077
 51,-0.809116,1.023981\C,0,4.133566,-1.622781,2.319066\C,0,2.832729,-2.
 433298,2.484965\C,0,2.579342,-3.423586,1.372579\C,0,2.834093,-4.721989
 ,1.375535\C,0,3.442731,-5.535663,2.492337\C,0,2.42774,-6.370218,3.2941
 33\C,0,1.693892,-7.402618,2.427801\C,0,0.774274,-8.428536,3.139447\C,0
 ,1.48049,-8.866974,4.432692\N,0,-0.48288,-7.772296,3.471776\C,0,-1.540
 669,-8.471572,3.976901\C,0,-2.868904,-7.752875,3.913093\O,0,-1.432118,
 -9.573501,4.438541\C,0,0.472847,-9.582985,2.157045\O,0,-0.407394,-9.47
 4476,1.346285\N,0,1.295833,-10.653484,2.183605\C,0,1.040125,-11.791904
 ,1.325226\N,0,3.997412,1.070275,-0.425452\C,0,3.587019,2.267163,-0.934
 086\C,0,4.328148,2.727659,-2.172145\O,0,2.697134,2.905425,-0.447397\H,
 0,-0.403259,1.006147,0.\H,0,-0.36496,-0.516002,0.875939\H,0,-0.345658,
 -0.522086,-0.883346\H,0,1.904244,0.070913,-0.879357\H,0,3.932135,1.221
 76,2.980082\H,0,5.28092,1.595925,1.9075\H,0,3.792711,2.540594,1.848395
 \H,0,5.374584,-0.64325,0.891407\H,0,3.984642,-1.403324,0.174983\H,0,4.
 961565,-2.324757,2.354635\H,0,4.250121,-0.975721,3.182259\H,0,1.985724
 ,-1.764045,2.562723\H,0,2.895638,-2.94811,3.437249\H,0,2.135502,-3.009
 181,0.481856\H,0,2.579482,-5.276386,0.485828\H,0,3.971519,-4.889909,3.
 182881\H,0,4.191817,-6.202016,2.066382\H,0,2.965623,-6.85691,4.102952\
 H,0,1.714584,-5.707921,3.766998\H,0,2.42081,-7.979938,1.860503\H,0,1.0
 83167,-6.875737,1.704087\H,0,1.553909,-8.012119,5.094819\H,0,2.490115,
 -9.210264,4.232215\H,0,0.93062,-9.642816,4.944015\H,0,-0.731586,-7.009
 062,2.884978\H,0,-3.540692,-8.187002,4.637866\H,0,-3.289669,-7.891013,
 2.921629\H,0,-2.76661,-6.688872,4.096985\H,0,1.838353,-10.812522,2.999
 503\H,0,1.870786,-12.480441,1.407928\H,0,0.955218,-11.463746,0.299688\
 H,0,0.123238,-12.30426,1.598291\H,0,4.82812,0.684785,-0.816437\H,0,3.7
 10173,3.434604,-2.706288\H,0,4.588171,1.902533,-2.825678\H,0,5.244771,
 3.226201,-1.873716\\Version=EM64L-G09RevA.02\State=1-A\HF=-1295.618654
 \RMSD=6.489e-09\Dipole=2.5412291,-0.0149448,-1.4712623\Quadrupole=11.8
 777045,-21.575218,9.6975134,-3.5594776,-3.0392181,-11.1330463\PG=C01 [
 X(C20H36N4O4)]\\@


    WHAT WE HAVE LEARNED
 IS LIKE A HANDFUL OF EARTH;
  WHAT WE HAVE YET TO LEARN
   IS LIKE THE WHOLE WORLD.

         -- AVVAYIAR
 Job cpu time:  0 days  0 hours  4 minutes 52.8 seconds.
 File lengths (MBytes):  RWF=    132 Int=      0 D2E=      0 Chk=     10 Scr=      1
 Normal termination of Gaussian 09 at Thu Dec  5 19:27:53 2019.
