 Entering Gaussian System, Link 0=g09
 Input=CHI9_-180.gau
 Output=CHI9_-180.log
 Initial command:
 /home/marie/Utilities//g09/l1.exe /tmp/g09/Gau-13446.inp -scrdir=/tmp/g09/
 Entering Link 1 = /home/marie/Utilities//g09/l1.exe PID=     13448.
  
 Copyright (c) 1988,1990,1992,1993,1995,1998,2003,2009, Gaussian, Inc.
                  All Rights Reserved.
  
 This is part of the Gaussian(R) 09 program.  It is based on
 the Gaussian(R) 03 system (copyright 2003, Gaussian, Inc.),
 the Gaussian(R) 98 system (copyright 1998, Gaussian, Inc.),
 the Gaussian(R) 94 system (copyright 1995, Gaussian, Inc.),
 the Gaussian 92(TM) system (copyright 1992, Gaussian, Inc.),
 the Gaussian 90(TM) system (copyright 1990, Gaussian, Inc.),
 the Gaussian 88(TM) system (copyright 1988, Gaussian, Inc.),
 the Gaussian 86(TM) system (copyright 1986, Carnegie Mellon
 University), and the Gaussian 82(TM) system (copyright 1983,
 Carnegie Mellon University). Gaussian is a federally registered
 trademark of Gaussian, Inc.
  
 This software contains proprietary and confidential information,
 including trade secrets, belonging to Gaussian, Inc.
  
 This software is provided under written license and may be
 used, copied, transmitted, or stored only in accord with that
 written license.
  
 The following legend is applicable only to US Government
 contracts under FAR:
  
                    RESTRICTED RIGHTS LEGEND
  
 Use, reproduction and disclosure by the US Government is
 subject to restrictions as set forth in subparagraphs (a)
 and (c) of the Commercial Computer Software - Restricted
 Rights clause in FAR 52.227-19.
  
 Gaussian, Inc.
 340 Quinnipiac St., Bldg. 40, Wallingford CT 06492
  
  
 ---------------------------------------------------------------
 Warning -- This program may not be used in any manner that
 competes with the business of Gaussian, Inc. or will provide
 assistance to any competitor of Gaussian, Inc.  The licensee
 of this program is prohibited from giving any competitor of
 Gaussian, Inc. access to this program.  By using this program,
 the user acknowledges that Gaussian, Inc. is engaged in the
 business of creating and licensing software in the field of
 computational chemistry and represents and warrants to the
 licensee that it is not a competitor of Gaussian, Inc. and that
 it will not use this program in any manner prohibited above.
 ---------------------------------------------------------------
  

 Cite this work as:
 Gaussian 09, Revision A.02,
 M. J. Frisch, G. W. Trucks, H. B. Schlegel, G. E. Scuseria, 
 M. A. Robb, J. R. Cheeseman, G. Scalmani, V. Barone, B. Mennucci, 
 G. A. Petersson, H. Nakatsuji, M. Caricato, X. Li, H. P. Hratchian, 
 A. F. Izmaylov, J. Bloino, G. Zheng, J. L. Sonnenberg, M. Hada, 
 M. Ehara, K. Toyota, R. Fukuda, J. Hasegawa, M. Ishida, T. Nakajima, 
 Y. Honda, O. Kitao, H. Nakai, T. Vreven, J. A. Montgomery, Jr., 
 J. E. Peralta, F. Ogliaro, M. Bearpark, J. J. Heyd, E. Brothers, 
 K. N. Kudin, V. N. Staroverov, R. Kobayashi, J. Normand, 
 K. Raghavachari, A. Rendell, J. C. Burant, S. S. Iyengar, J. Tomasi, 
 M. Cossi, N. Rega, J. M. Millam, M. Klene, J. E. Knox, J. B. Cross, 
 V. Bakken, C. Adamo, J. Jaramillo, R. Gomperts, R. E. Stratmann, 
 O. Yazyev, A. J. Austin, R. Cammi, C. Pomelli, J. W. Ochterski, 
 R. L. Martin, K. Morokuma, V. G. Zakrzewski, G. A. Voth, 
 P. Salvador, J. J. Dannenberg, S. Dapprich, A. D. Daniels, 
 O. Farkas, J. B. Foresman, J. V. Ortiz, J. Cioslowski, 
 and D. J. Fox, Gaussian, Inc., Wallingford CT, 2009.
 
 ******************************************
 Gaussian 09:  EM64L-G09RevA.02 11-Jun-2009
                 5-Dec-2019 
 ******************************************
 %chk=CHI9_-180
 %NoSave
 ---------------------------------
 #SP HF/6-31G* Geom=(ModRedundant)
 ---------------------------------
 1/18=120,38=1/1;
 2/12=2,17=6,18=5,40=1/2;
 3/5=1,6=6,7=1,11=9,16=1,25=1,30=1/1,2,3;
 4//1;
 5/5=2,38=5/2;
 6/7=2,8=2,9=2,10=2,28=1/1;
 99/5=1,9=1/99;
 ------------
 paramfit run
 ------------
 Symbolic Z-matrix:
 Charge =  0 Multiplicity = 1
 C-CT--0.3208          0.        0.        0. 
 N-N--0.5622           1.44819   0.        0. 
 C-C-0.8053            2.1232    0.47592   1.07237 
 O-O--0.6151           1.59018   0.69673   2.12445 
 C-CX-0.0839           3.65051   0.59414   0.92154 
 C-CU--0.3230          4.1989    1.54925   1.98685 
 C-CU--0.0657          4.30775  -0.80912   1.02398 
 C-CU--0.0109          4.13357  -1.62278   2.31907 
 C-CU-0.0816           2.83273  -2.4333    2.48497 
 C-CM--0.2354          2.57934  -3.42359   1.37258 
 C-CM--0.2653          2.83409  -4.72199   1.37554 
 C-CU-0.1214           3.44273  -5.53566   2.49234 
 C-CU--0.0354          2.42774  -6.37022   3.29413 
 C-CU--0.0984          1.69389  -7.40262   2.4278 
 C-CU-0.1300           0.77427  -8.42854   3.13945 
 C-CU--0.3561          0.16716  -9.33699   2.05798 
 N-N--0.7186           1.58637  -9.22909   4.04562 
 C-C-0.8537            1.0209   -10.11826   4.91319 
 C-CT--0.3868          1.92695  -10.58324   6.03019 
 O-O--0.6323          -0.10898  -10.50623   4.80373 
 C-C-0.7903           -0.2681   -7.65525   3.97862 
 O-O--0.6136           0.01158  -7.26096   5.07873 
 N-N--0.5650          -1.44639  -7.35958   3.38854 
 C-CT--0.3231         -2.48642  -6.68176   4.13493 
 N-N--0.7191           3.99741   1.07028  -0.42545 
 C-C-0.8539            3.58702   2.26716  -0.93409 
 C-CT--0.3903          4.32815   2.72766  -2.17214 
 O-O--0.6290           2.69713   2.90543  -0.4474 
 H-H1-0.1459          -0.40326   1.00615   0. 
 H-H1-0.1459          -0.36496  -0.516     0.87594 
 H-H1-0.1459          -0.34566  -0.52209  -0.88335 
 H-H-0.3572            1.90424   0.07091  -0.87936 
 H-HC-0.0997           3.93214   1.22176   2.98008 
 H-HC-0.0997           5.28092   1.59593   1.9075 
 H-HC-0.0997           3.79271   2.54059   1.8484 
 H-HC-0.0347           5.37458  -0.64325   0.89141 
 H-HC-0.0347           3.98464  -1.40332   0.17498 
 H-HC-0.0243           4.96157  -2.32476   2.35464 
 H-HC-0.0243           4.25012  -0.97572   3.18226 
 H-HC-0.0171           1.98572  -1.76405   2.56272 
 H-HC-0.0171           2.89564  -2.94811   3.43725 
 H-HA-0.1313           2.1355   -3.00918   0.48186 
 H-HA-0.1359           2.57948  -5.27639   0.48583 
 H-HC-0.0092           3.97152  -4.88991   3.18288 
 H-HC-0.0092           4.19182  -6.20202   2.06638 
 H-HC-0.0318           2.96562  -6.85691   4.10295 
 H-HC-0.0318           1.71458  -5.70792   3.767 
 H-HC-0.0435           2.42081  -7.97994   1.8605 
 H-HC-0.0435           1.08317  -6.87574   1.70409 
 H-HC-0.1066           0.96435  -9.90927   1.59802 
 H-HC-0.1066          -0.3072   -8.75372   1.27558 
 H-HC-0.1066          -0.5479   -10.03027   2.47485 
 H-H-0.3529            2.40891  -8.78442   4.38387 
 H-HC-0.1047           1.5553   -11.51848   6.42042 
 H-HC-0.1047           1.90638  -9.84206   6.82351 
 H-HC-0.1047           2.95305  -10.70385   5.70012 
 H-H-0.3615           -1.72732  -7.89331   2.60018 
 H-H1-0.1469          -3.29159  -6.43189   3.45657 
 H-H1-0.1469          -2.09313  -5.77244   4.56515 
 H-H1-0.1469          -2.8748   -7.30067   4.93735 
 H-H-0.3570            4.82812   0.68479  -0.81644 
 H-HC-0.1060           3.71017   3.4346   -2.70629 
 H-HC-0.1060           4.58817   1.90253  -2.82568 
 H-HC-0.1060           5.24477   3.2262   -1.87372 
 
 The following ModRedundant input section has been read:
 D    *   14   15    * F                                                       
 Stoichiometry    C20H36N4O4
 Framework group  C1[X(C20H36N4O4)]
 Deg. of freedom   186
 Full point group                 C1      NOp   1
 Largest Abelian subgroup         C1      NOp   1
 Largest concise Abelian subgroup C1      NOp   1
                         Standard orientation:                         
 ---------------------------------------------------------------------
 Center     Atomic      Atomic             Coordinates (Angstroms)
 Number     Number       Type             X           Y           Z
 ---------------------------------------------------------------------
      1          6    20001001       -3.765586    2.899754    0.494706
      2          7    20001014       -4.116009    1.495117    0.532723
      3          6    20001002       -4.320077    0.818836   -0.621881
      4          8    20001024       -4.009474    1.261909   -1.692842
      5          6    90000001       -4.850630   -0.619812   -0.487008
      6          6    90000002       -5.458063   -1.069745   -1.819834
      7          6    90000002       -3.709153   -1.569925   -0.033226
      8          6    90000002       -2.466082   -1.724670   -0.927912
      9          6    90000002       -1.361548   -0.655828   -0.808667
     10          6    20001004       -0.810846   -0.494149    0.588783
     11          6    20001004        0.297639   -1.019926    1.084340
     12          6    90000002        1.286827   -1.913408    0.375151
     13          6    90000002        2.573783   -1.200258   -0.077317
     14          6    90000002        3.367636   -0.609953    1.095820
     15          6    90000002        4.771215   -0.019941    0.801715
     16          6    90000002        5.345007    0.498804    2.130292
     17          7    20001014        5.623192   -1.083676    0.287773
     18          6    20001002        6.874331   -0.825820   -0.193075
     19          6    20001001        7.477678   -1.933033   -1.026656
     20          8    20001024        7.457472    0.199531    0.025434
     21          6    20001002        4.630637    1.060140   -0.294819
     22          8    20001024        4.605765    0.746607   -1.454564
     23          7    20001014        4.436156    2.334388    0.108231
     24          6    20001001        4.347427    3.402426   -0.866255
     25          7    20001014       -5.850357   -0.698971    0.588032
     26          6    20001002       -7.012636    0.014286    0.594668
     27          6    20001001       -8.054285   -0.463146    1.585195
     28          8    20001024       -7.195996    0.958146   -0.120628
     29          1    20001035       -4.573925    3.506580    0.103170
     30          1    20001035       -2.895929    3.042166   -0.129905
     31          1    20001035       -3.531295    3.224903    1.500558
     32          1    20001029       -4.608194    1.169326    1.331408
     33          1    20001034       -4.739485   -0.995680   -2.621765
     34          1    20001034       -5.790602   -2.100073   -1.735694
     35          1    20001034       -6.302431   -0.447292   -2.077752
     36          1    20001034       -4.164581   -2.553838    0.054634
     37          1    20001034       -3.402960   -1.286067    0.968748
     38          1    20001034       -2.021527   -2.682356   -0.673299
     39          1    20001034       -2.764748   -1.798492   -1.968451
     40          1    20001034       -1.731061    0.300215   -1.156236
     41          1    20001034       -0.568889   -0.936962   -1.493129
     42          1    20001033       -1.398665    0.127840    1.244306
     43          1    20001033        0.536691   -0.789280    2.110701
     44          1    20001034        0.827156   -2.367447   -0.494341
     45          1    20001034        1.551512   -2.733725    1.041196
     46          1    20001034        3.174315   -1.919519   -0.627227
     47          1    20001034        2.321020   -0.421067   -0.784284
     48          1    20001034        3.506410   -1.373392    1.858341
     49          1    20001034        2.779320    0.178767    1.549864
     50          1    20001034        5.501052   -0.344084    2.793443
     51          1    20001034        4.651699    1.174116    2.620860
     52          1    20001034        6.292994    0.995698    1.988326
     53          1    20001029        5.146105   -1.825136   -0.171942
     54          1    20001034        8.550783   -1.818035   -1.043348
     55          1    20001034        7.102181   -1.845623   -2.041786
     56          1    20001034        7.218622   -2.916095   -0.648686
     57          1    20001029        4.699619    2.583314    1.032316
     58          1    20001035        4.071973    4.315138   -0.354392
     59          1    20001035        3.589095    3.166319   -1.598247
     60          1    20001035        5.288819    3.553968   -1.384493
     61          1    20001029       -5.845662   -1.542275    1.117526
     62          1    20001034       -8.734423    0.349359    1.795485
     63          1    20001034       -7.610598   -0.816915    2.509067
     64          1    20001034       -8.617047   -1.279723    1.144399
 ---------------------------------------------------------------------
 Rotational constants (GHZ):      0.4143435      0.0492730      0.0473014
 Standard basis: 6-31G(d) (6D, 7F)
 There are   492 symmetry adapted basis functions of A   symmetry.
 Integral buffers will be    131072 words long.
 Raffenetti 1 integral format.
 Two-electron integral symmetry is turned on.
   492 basis functions,   928 primitive gaussians,   492 cartesian basis functions
   108 alpha electrons      108 beta electrons
       nuclear repulsion energy      2683.4637705338 Hartrees.
 NAtoms=   64 NActive=   64 NUniq=   64 SFac= 7.50D-01 NAtFMM=   80 NAOKFM=F Big=T
 One-electron integrals computed using PRISM.
 NBasis=   492 RedAO= T  NBF=   492
 NBsUse=   492 1.00D-06 NBFU=   492
 Harris functional with IExCor=  205 diagonalized for initial guess.
 ExpMin= 1.61D-01 ExpMax= 5.48D+03 ExpMxC= 8.25D+02 IAcc=1 IRadAn=         1 AccDes= 0.00D+00
 HarFok:  IExCor=  205 AccDes= 0.00D+00 IRadAn=         1 IDoV= 1
 ScaDFX=  1.000000  1.000000  1.000000  1.000000
 FoFCou: FMM=F IPFlag=           0 FMFlag=      100000 FMFlg1=           1
         NFxFlg=           0 DoJE=T BraDBF=F KetDBF=T FulRan=T
         Omega=  0.000000  0.000000  1.000000  0.000000  0.000000 ICntrl=     500 IOpCl=  0
         NMat0=    1 NMatS0=    1 NMatT0=    0 NMatD0=    1 NMtDS0=    0 NMtDT0=    0
         I1Cent=           4 NGrid=           0.
 Petite list used in FoFCou.
 Initial guess orbital symmetries:
       Occupied  (A) (A) (A) (A) (A) (A) (A) (A) (A) (A) (A) (A)
                 (A) (A) (A) (A) (A) (A) (A) (A) (A) (A) (A) (A)
                 (A) (A) (A) (A) (A) (A) (A) (A) (A) (A) (A) (A)
                 (A) (A) (A) (A) (A) (A) (A) (A) (A) (A) (A) (A)
                 (A) (A) (A) (A) (A) (A) (A) (A) (A) (A) (A) (A)
                 (A) (A) (A) (A) (A) (A) (A) (A) (A) (A) (A) (A)
                 (A) (A) (A) (A) (A) (A) (A) (A) (A) (A) (A) (A)
                 (A) (A) (A) (A) (A) (A) (A) (A) (A) (A) (A) (A)
                 (A) (A) (A) (A) (A) (A) (A) (A) (A) (A) (A) (A)
       Virtual   (A) (A) (A) (A) (A) (A) (A) (A) (A) (A) (A) (A)
                 (A) (A) (A) (A) (A) (A) (A) (A) (A) (A) (A) (A)
                 (A) (A) (A) (A) (A) (A) (A) (A) (A) (A) (A) (A)
                 (A) (A) (A) (A) (A) (A) (A) (A) (A) (A) (A) (A)
                 (A) (A) (A) (A) (A) (A) (A) (A) (A) (A) (A) (A)
                 (A) (A) (A) (A) (A) (A) (A) (A) (A) (A) (A) (A)
                 (A) (A) (A) (A) (A) (A) (A) (A) (A) (A) (A) (A)
                 (A) (A) (A) (A) (A) (A) (A) (A) (A) (A) (A) (A)
                 (A) (A) (A) (A) (A) (A) (A) (A) (A) (A) (A) (A)
                 (A) (A) (A) (A) (A) (A) (A) (A) (A) (A) (A) (A)
                 (A) (A) (A) (A) (A) (A) (A) (A) (A) (A) (A) (A)
                 (A) (A) (A) (A) (A) (A) (A) (A) (A) (A) (A) (A)
                 (A) (A) (A) (A) (A) (A) (A) (A) (A) (A) (A) (A)
                 (A) (A) (A) (A) (A) (A) (A) (A) (A) (A) (A) (A)
                 (A) (A) (A) (A) (A) (A) (A) (A) (A) (A) (A) (A)
                 (A) (A) (A) (A) (A) (A) (A) (A) (A) (A) (A) (A)
                 (A) (A) (A) (A) (A) (A) (A) (A) (A) (A) (A) (A)
                 (A) (A) (A) (A) (A) (A) (A) (A) (A) (A) (A) (A)
                 (A) (A) (A) (A) (A) (A) (A) (A) (A) (A) (A) (A)
                 (A) (A) (A) (A) (A) (A) (A) (A) (A) (A) (A) (A)
                 (A) (A) (A) (A) (A) (A) (A) (A) (A) (A) (A) (A)
                 (A) (A) (A) (A) (A) (A) (A) (A) (A) (A) (A) (A)
                 (A) (A) (A) (A) (A) (A) (A) (A) (A) (A) (A) (A)
                 (A) (A) (A) (A) (A) (A) (A) (A) (A) (A) (A) (A)
                 (A) (A) (A) (A) (A) (A) (A) (A) (A) (A) (A) (A)
                 (A) (A) (A) (A) (A) (A) (A) (A) (A) (A) (A) (A)
                 (A) (A) (A) (A) (A) (A) (A) (A) (A) (A) (A) (A)
                 (A) (A) (A) (A) (A) (A) (A) (A) (A) (A) (A) (A)
                 (A) (A) (A) (A) (A) (A) (A) (A) (A) (A) (A) (A)
                 (A) (A) (A) (A) (A) (A) (A) (A) (A) (A) (A) (A)
                 (A) (A) (A) (A) (A) (A) (A) (A) (A) (A) (A) (A)
                 (A) (A) (A) (A) (A) (A) (A) (A) (A) (A) (A) (A)
 The electronic state of the initial guess is 1-A.
 Requested convergence on RMS density matrix=1.00D-08 within 128 cycles.
 Requested convergence on MAX density matrix=1.00D-06.
 Requested convergence on             energy=1.00D-06.
 No special actions if energy rises.
 Integral accuracy reduced to 1.0D-05 until final iterations.
 Initial convergence to 1.0D-05 achieved.  Increase integral accuracy.
 SCF Done:  E(RHF) =  -1295.62203555     A.U. after   14 cycles
             Convg  =    0.6101D-08             -V/T =  2.0012

 **********************************************************************

            Population analysis using the SCF density.

 **********************************************************************

 Orbital symmetries:
       Occupied  (A) (A) (A) (A) (A) (A) (A) (A) (A) (A) (A) (A)
                 (A) (A) (A) (A) (A) (A) (A) (A) (A) (A) (A) (A)
                 (A) (A) (A) (A) (A) (A) (A) (A) (A) (A) (A) (A)
                 (A) (A) (A) (A) (A) (A) (A) (A) (A) (A) (A) (A)
                 (A) (A) (A) (A) (A) (A) (A) (A) (A) (A) (A) (A)
                 (A) (A) (A) (A) (A) (A) (A) (A) (A) (A) (A) (A)
                 (A) (A) (A) (A) (A) (A) (A) (A) (A) (A) (A) (A)
                 (A) (A) (A) (A) (A) (A) (A) (A) (A) (A) (A) (A)
                 (A) (A) (A) (A) (A) (A) (A) (A) (A) (A) (A) (A)
       Virtual   (A) (A) (A) (A) (A) (A) (A) (A) (A) (A) (A) (A)
                 (A) (A) (A) (A) (A) (A) (A) (A) (A) (A) (A) (A)
                 (A) (A) (A) (A) (A) (A) (A) (A) (A) (A) (A) (A)
                 (A) (A) (A) (A) (A) (A) (A) (A) (A) (A) (A) (A)
                 (A) (A) (A) (A) (A) (A) (A) (A) (A) (A) (A) (A)
                 (A) (A) (A) (A) (A) (A) (A) (A) (A) (A) (A) (A)
                 (A) (A) (A) (A) (A) (A) (A) (A) (A) (A) (A) (A)
                 (A) (A) (A) (A) (A) (A) (A) (A) (A) (A) (A) (A)
                 (A) (A) (A) (A) (A) (A) (A) (A) (A) (A) (A) (A)
                 (A) (A) (A) (A) (A) (A) (A) (A) (A) (A) (A) (A)
                 (A) (A) (A) (A) (A) (A) (A) (A) (A) (A) (A) (A)
                 (A) (A) (A) (A) (A) (A) (A) (A) (A) (A) (A) (A)
                 (A) (A) (A) (A) (A) (A) (A) (A) (A) (A) (A) (A)
                 (A) (A) (A) (A) (A) (A) (A) (A) (A) (A) (A) (A)
                 (A) (A) (A) (A) (A) (A) (A) (A) (A) (A) (A) (A)
                 (A) (A) (A) (A) (A) (A) (A) (A) (A) (A) (A) (A)
                 (A) (A) (A) (A) (A) (A) (A) (A) (A) (A) (A) (A)
                 (A) (A) (A) (A) (A) (A) (A) (A) (A) (A) (A) (A)
                 (A) (A) (A) (A) (A) (A) (A) (A) (A) (A) (A) (A)
                 (A) (A) (A) (A) (A) (A) (A) (A) (A) (A) (A) (A)
                 (A) (A) (A) (A) (A) (A) (A) (A) (A) (A) (A) (A)
                 (A) (A) (A) (A) (A) (A) (A) (A) (A) (A) (A) (A)
                 (A) (A) (A) (A) (A) (A) (A) (A) (A) (A) (A) (A)
                 (A) (A) (A) (A) (A) (A) (A) (A) (A) (A) (A) (A)
                 (A) (A) (A) (A) (A) (A) (A) (A) (A) (A) (A) (A)
                 (A) (A) (A) (A) (A) (A) (A) (A) (A) (A) (A) (A)
                 (A) (A) (A) (A) (A) (A) (A) (A) (A) (A) (A) (A)
                 (A) (A) (A) (A) (A) (A) (A) (A) (A) (A) (A) (A)
                 (A) (A) (A) (A) (A) (A) (A) (A) (A) (A) (A) (A)
                 (A) (A) (A) (A) (A) (A) (A) (A) (A) (A) (A) (A)
                 (A) (A) (A) (A) (A) (A) (A) (A) (A) (A) (A) (A)
                 (A) (A) (A) (A) (A) (A) (A) (A) (A) (A) (A) (A)
 The electronic state is 1-A.
 Alpha  occ. eigenvalues --  -20.53652 -20.52026 -20.51851 -20.51579 -15.59611
 Alpha  occ. eigenvalues --  -15.57877 -15.57541 -15.57487 -11.35972 -11.34234
 Alpha  occ. eigenvalues --  -11.33864 -11.33659 -11.29029 -11.28555 -11.24957
 Alpha  occ. eigenvalues --  -11.24906 -11.24363 -11.24005 -11.23395 -11.22696
 Alpha  occ. eigenvalues --  -11.22572 -11.22498 -11.22385 -11.22231 -11.22027
 Alpha  occ. eigenvalues --  -11.21800 -11.21592 -11.20853  -1.40589  -1.39346
 Alpha  occ. eigenvalues --   -1.38709  -1.38069  -1.25436  -1.23529  -1.22591
 Alpha  occ. eigenvalues --   -1.22086  -1.10766  -1.09259  -1.07185  -1.04231
 Alpha  occ. eigenvalues --   -1.01237  -0.99318  -0.98733  -0.95525  -0.95126
 Alpha  occ. eigenvalues --   -0.94569  -0.92192  -0.87268  -0.85702  -0.82833
 Alpha  occ. eigenvalues --   -0.81340  -0.79487  -0.78776  -0.77186  -0.76856
 Alpha  occ. eigenvalues --   -0.71899  -0.71294  -0.71103  -0.68947  -0.67980
 Alpha  occ. eigenvalues --   -0.66710  -0.65853  -0.64507  -0.63949  -0.63708
 Alpha  occ. eigenvalues --   -0.62590  -0.62332  -0.61787  -0.61397  -0.61138
 Alpha  occ. eigenvalues --   -0.60918  -0.59899  -0.59326  -0.58712  -0.58419
 Alpha  occ. eigenvalues --   -0.58260  -0.57826  -0.56564  -0.56413  -0.56190
 Alpha  occ. eigenvalues --   -0.55506  -0.54848  -0.54750  -0.54559  -0.53958
 Alpha  occ. eigenvalues --   -0.53085  -0.52822  -0.52461  -0.52153  -0.51568
 Alpha  occ. eigenvalues --   -0.51032  -0.50299  -0.49759  -0.49262  -0.48559
 Alpha  occ. eigenvalues --   -0.48375  -0.46927  -0.46386  -0.44544  -0.42871
 Alpha  occ. eigenvalues --   -0.41944  -0.41490  -0.41045  -0.39290  -0.38817
 Alpha  occ. eigenvalues --   -0.38323  -0.38254  -0.34518
 Alpha virt. eigenvalues --    0.17326   0.18797   0.19689   0.19989   0.20234
 Alpha virt. eigenvalues --    0.21599   0.22044   0.23132   0.23254   0.23944
 Alpha virt. eigenvalues --    0.25310   0.25641   0.26570   0.27129   0.27666
 Alpha virt. eigenvalues --    0.27928   0.28206   0.28817   0.29212   0.29506
 Alpha virt. eigenvalues --    0.29607   0.30189   0.31161   0.31533   0.31653
 Alpha virt. eigenvalues --    0.32027   0.32324   0.32567   0.33281   0.33670
 Alpha virt. eigenvalues --    0.33901   0.34424   0.34693   0.35017   0.35367
 Alpha virt. eigenvalues --    0.35542   0.35807   0.36511   0.37112   0.37367
 Alpha virt. eigenvalues --    0.38331   0.38696   0.39362   0.39555   0.40010
 Alpha virt. eigenvalues --    0.40528   0.41320   0.42088   0.42684   0.44029
 Alpha virt. eigenvalues --    0.44784   0.44899   0.45484   0.45813   0.47050
 Alpha virt. eigenvalues --    0.47505   0.48813   0.49143   0.52234   0.52840
 Alpha virt. eigenvalues --    0.53946   0.55129   0.57735   0.58832   0.59818
 Alpha virt. eigenvalues --    0.61960   0.63313   0.64449   0.68904   0.70239
 Alpha virt. eigenvalues --    0.70927   0.71350   0.71988   0.72604   0.73243
 Alpha virt. eigenvalues --    0.73476   0.74427   0.75072   0.76026   0.76507
 Alpha virt. eigenvalues --    0.76779   0.77228   0.77806   0.78530   0.78910
 Alpha virt. eigenvalues --    0.79667   0.79930   0.80587   0.81174   0.82276
 Alpha virt. eigenvalues --    0.83144   0.84066   0.84822   0.85422   0.86337
 Alpha virt. eigenvalues --    0.87269   0.88087   0.88834   0.90121   0.90555
 Alpha virt. eigenvalues --    0.91591   0.92368   0.92569   0.93068   0.93867
 Alpha virt. eigenvalues --    0.94634   0.95766   0.96850   0.97143   0.97868
 Alpha virt. eigenvalues --    0.98546   0.98862   0.99843   1.00307   1.00460
 Alpha virt. eigenvalues --    1.01493   1.02225   1.02365   1.02917   1.03784
 Alpha virt. eigenvalues --    1.04073   1.04397   1.05587   1.06658   1.06789
 Alpha virt. eigenvalues --    1.07492   1.08161   1.08757   1.10514   1.11044
 Alpha virt. eigenvalues --    1.11949   1.12090   1.13111   1.13524   1.14218
 Alpha virt. eigenvalues --    1.14521   1.14798   1.15054   1.15347   1.16000
 Alpha virt. eigenvalues --    1.16091   1.16612   1.16843   1.17599   1.18010
 Alpha virt. eigenvalues --    1.18269   1.18407   1.18890   1.19116   1.19438
 Alpha virt. eigenvalues --    1.19539   1.19940   1.20563   1.21138   1.21452
 Alpha virt. eigenvalues --    1.21805   1.22125   1.22356   1.22610   1.22694
 Alpha virt. eigenvalues --    1.23248   1.23653   1.24094   1.25252   1.25956
 Alpha virt. eigenvalues --    1.26225   1.26914   1.27492   1.28311   1.28971
 Alpha virt. eigenvalues --    1.29693   1.30521   1.31242   1.31844   1.32624
 Alpha virt. eigenvalues --    1.33382   1.34126   1.35864   1.36348   1.36945
 Alpha virt. eigenvalues --    1.38391   1.38943   1.40586   1.42097   1.42324
 Alpha virt. eigenvalues --    1.43953   1.45444   1.46757   1.47461   1.48303
 Alpha virt. eigenvalues --    1.50756   1.51544   1.53832   1.54280   1.55309
 Alpha virt. eigenvalues --    1.56729   1.58514   1.59433   1.60581   1.61441
 Alpha virt. eigenvalues --    1.61920   1.63733   1.65213   1.66389   1.68339
 Alpha virt. eigenvalues --    1.69285   1.71479   1.71706   1.72437   1.72936
 Alpha virt. eigenvalues --    1.73751   1.74762   1.78271   1.79031   1.79788
 Alpha virt. eigenvalues --    1.80400   1.81410   1.83020   1.86975   1.88053
 Alpha virt. eigenvalues --    1.89568   1.90575   1.91504   1.92929   1.94779
 Alpha virt. eigenvalues --    1.96042   1.96730   1.98463   1.99878   2.01691
 Alpha virt. eigenvalues --    2.04710   2.05664   2.06200   2.07373   2.08164
 Alpha virt. eigenvalues --    2.08483   2.10966   2.11557   2.12019   2.12457
 Alpha virt. eigenvalues --    2.12667   2.13336   2.14426   2.15801   2.16041
 Alpha virt. eigenvalues --    2.16358   2.18018   2.18307   2.19069   2.19349
 Alpha virt. eigenvalues --    2.20252   2.21297   2.21909   2.23052   2.23339
 Alpha virt. eigenvalues --    2.24699   2.25800   2.26109   2.26619   2.27314
 Alpha virt. eigenvalues --    2.28241   2.29181   2.29873   2.31306   2.31456
 Alpha virt. eigenvalues --    2.33003   2.34095   2.34589   2.35283   2.36039
 Alpha virt. eigenvalues --    2.36953   2.37232   2.37763   2.38353   2.39312
 Alpha virt. eigenvalues --    2.39629   2.40922   2.41726   2.43385   2.45047
 Alpha virt. eigenvalues --    2.45582   2.45878   2.47559   2.49216   2.50214
 Alpha virt. eigenvalues --    2.51559   2.52331   2.54480   2.55128   2.55812
 Alpha virt. eigenvalues --    2.56871   2.57208   2.57632   2.59317   2.60434
 Alpha virt. eigenvalues --    2.62466   2.63302   2.64282   2.64511   2.65066
 Alpha virt. eigenvalues --    2.66398   2.68602   2.70017   2.70612   2.71073
 Alpha virt. eigenvalues --    2.72116   2.73427   2.74524   2.75101   2.76319
 Alpha virt. eigenvalues --    2.76648   2.77931   2.78652   2.79380   2.79497
 Alpha virt. eigenvalues --    2.81288   2.82495   2.84032   2.85070   2.86356
 Alpha virt. eigenvalues --    2.87723   2.88424   2.90986   2.91754   2.95871
 Alpha virt. eigenvalues --    2.96645   2.97773   2.98338   2.98755   3.02073
 Alpha virt. eigenvalues --    3.03448   3.04580   3.05356   3.06503   3.06560
 Alpha virt. eigenvalues --    3.11266   3.11325   3.13057   3.14027   3.15609
 Alpha virt. eigenvalues --    3.16777   3.18552   3.22182   3.29603   3.30614
 Alpha virt. eigenvalues --    3.34390   3.34617   3.38748   3.40528   3.41311
 Alpha virt. eigenvalues --    3.42690   3.43009   3.53278   3.55750   3.57628
 Alpha virt. eigenvalues --    3.60148   4.38512   4.40916   4.44706   4.46846
 Alpha virt. eigenvalues --    4.49184   4.51911   4.55179   4.57608   4.61352
 Alpha virt. eigenvalues --    4.63343   4.66527   4.67505   4.68541   4.70049
 Alpha virt. eigenvalues --    4.71352   4.77091   4.78927   4.82911   4.84069
 Alpha virt. eigenvalues --    4.87922   4.89059   4.93687   4.95246   4.98936
 Alpha virt. eigenvalues --    5.02463   5.11983   5.21931   5.23668
          Condensed to atoms (all electrons):
 Mulliken atomic charges:
              1
     1  C   -0.279683
     2  N   -0.783416
     3  C    0.821868
     4  O   -0.628073
     5  C    0.102334
     6  C   -0.472795
     7  C   -0.334291
     8  C   -0.311940
     9  C   -0.373784
    10  C   -0.178800
    11  C   -0.177153
    12  C   -0.353170
    13  C   -0.311265
    14  C   -0.328149
    15  C    0.090185
    16  C   -0.509705
    17  N   -0.788546
    18  C    0.767485
    19  C   -0.595857
    20  O   -0.613979
    21  C    0.820007
    22  O   -0.638730
    23  N   -0.805728
    24  C   -0.275577
    25  N   -0.843076
    26  C    0.744560
    27  C   -0.588676
    28  O   -0.591747
    29  H    0.187017
    30  H    0.198385
    31  H    0.162159
    32  H    0.391309
    33  H    0.198977
    34  H    0.144086
    35  H    0.212531
    36  H    0.161367
    37  H    0.182105
    38  H    0.164390
    39  H    0.179893
    40  H    0.213640
    41  H    0.175126
    42  H    0.180515
    43  H    0.169687
    44  H    0.176776
    45  H    0.160453
    46  H    0.148608
    47  H    0.201186
    48  H    0.173063
    49  H    0.185435
    50  H    0.183483
    51  H    0.148308
    52  H    0.226724
    53  H    0.390940
    54  H    0.211139
    55  H    0.209523
    56  H    0.176205
    57  H    0.395219
    58  H    0.164734
    59  H    0.199966
    60  H    0.184963
    61  H    0.382608
    62  H    0.218624
    63  H    0.177176
    64  H    0.201376
 Sum of Mulliken atomic charges =   0.00000
 Mulliken charges with hydrogens summed into heavy atoms:
              1
     1  C    0.267879
     2  N   -0.392106
     3  C    0.821868
     4  O   -0.628073
     5  C    0.102334
     6  C    0.082799
     7  C    0.009182
     8  C    0.032344
     9  C    0.014983
    10  C    0.001715
    11  C   -0.007466
    12  C   -0.015941
    13  C    0.038529
    14  C    0.030350
    15  C    0.090185
    16  C    0.048810
    17  N   -0.397605
    18  C    0.767485
    19  C    0.001010
    20  O   -0.613979
    21  C    0.820007
    22  O   -0.638730
    23  N   -0.410510
    24  C    0.274086
    25  N   -0.460468
    26  C    0.744560
    27  C    0.008499
    28  O   -0.591747
 Sum of Mulliken charges with hydrogens summed into heavy atoms =   0.00000
 Electronic spatial extent (au):  <R**2>=          22113.5204
 Charge=              0.0000 electrons
 Dipole moment (field-independent basis, Debye):
    X=             -2.7912    Y=             -4.3688    Z=              6.5416  Tot=              8.3468
 Quadrupole moment (field-independent basis, Debye-Ang):
   XX=           -194.2386   YY=           -155.6414   ZZ=           -173.5402
   XY=             13.7077   XZ=            -18.3009   YZ=             10.1192
 Traceless Quadrupole moment (field-independent basis, Debye-Ang):
   XX=            -19.7652   YY=             18.8320   ZZ=              0.9332
   XY=             13.7077   XZ=            -18.3009   YZ=             10.1192
 Octapole moment (field-independent basis, Debye-Ang**2):
  XXX=           -288.6445  YYY=             50.1430  ZZZ=             16.3258  XYY=             58.0849
  XXY=           -230.0965  XXZ=            168.9974  XZZ=             -7.6830  YZZ=             -1.0081
  YYZ=              4.9522  XYZ=              4.3132
 Hexadecapole moment (field-independent basis, Debye-Ang**3):
 XXXX=         -27183.1670 YYYY=          -2295.7283 ZZZZ=          -1298.7693 XXXY=            352.9934
 XXXZ=          -1068.2612 YYYX=             84.2559 YYYZ=              2.6098 ZZZX=            -55.5662
 ZZZY=             21.1862 XXYY=          -4255.6667 XXZZ=          -4342.5238 YYZZ=           -616.5173
 XXYZ=            227.0139 YYXZ=            -77.7969 ZZXY=             26.7257
 N-N= 2.683463770534D+03 E-N=-8.398981327845D+03  KE= 1.294015486659D+03
 1\1\GINC-MOSURA\SP\RHF\6-31G(d)\C20H36N4O4\MARIE\05-Dec-2019\0\\#SP HF
 /6-31G* Geom=(ModRedundant)\\paramfit run\\0,1\C,0,0.,0.,0.\N,0,1.4481
 87,0.,0.\C,0,2.1232,0.47592,1.072365\O,0,1.590179,0.696732,2.124447\C,
 0,3.650505,0.594143,0.921539\C,0,4.198902,1.549248,1.986845\C,0,4.3077
 51,-0.809116,1.023981\C,0,4.133566,-1.622781,2.319066\C,0,2.832729,-2.
 433298,2.484965\C,0,2.579342,-3.423586,1.372579\C,0,2.834093,-4.721989
 ,1.375535\C,0,3.442731,-5.535663,2.492337\C,0,2.42774,-6.370218,3.2941
 33\C,0,1.693892,-7.402618,2.427801\C,0,0.774274,-8.428536,3.139447\C,0
 ,0.167163,-9.336991,2.057977\N,0,1.586372,-9.22909,4.045616\C,0,1.0209
 05,-10.118256,4.91319\C,0,1.926945,-10.583245,6.030187\O,0,-0.10898,-1
 0.506227,4.803725\C,0,-0.268096,-7.655246,3.97862\O,0,0.011582,-7.2609
 61,5.078733\N,0,-1.446385,-7.359575,3.38854\C,0,-2.486416,-6.681761,4.
 134934\N,0,3.997412,1.070275,-0.425452\C,0,3.587019,2.267163,-0.934086
 \C,0,4.328148,2.727659,-2.172145\O,0,2.697134,2.905425,-0.447397\H,0,-
 0.403259,1.006147,0.\H,0,-0.36496,-0.516002,0.875939\H,0,-0.345658,-0.
 522086,-0.883346\H,0,1.904244,0.070913,-0.879357\H,0,3.932135,1.22176,
 2.980082\H,0,5.28092,1.595925,1.9075\H,0,3.792711,2.540594,1.848395\H,
 0,5.374584,-0.64325,0.891407\H,0,3.984642,-1.403324,0.174983\H,0,4.961
 565,-2.324757,2.354635\H,0,4.250121,-0.975721,3.182259\H,0,1.985724,-1
 .764045,2.562723\H,0,2.895638,-2.94811,3.437249\H,0,2.135502,-3.009181
 ,0.481856\H,0,2.579482,-5.276386,0.485828\H,0,3.971519,-4.889909,3.182
 881\H,0,4.191817,-6.202016,2.066382\H,0,2.965623,-6.85691,4.102952\H,0
 ,1.714584,-5.707921,3.766998\H,0,2.42081,-7.979938,1.860503\H,0,1.0831
 67,-6.875737,1.704087\H,0,0.964354,-9.90927,1.598016\H,0,-0.3072,-8.75
 3718,1.275575\H,0,-0.547903,-10.030268,2.474853\H,0,2.408909,-8.784422
 ,4.383871\H,0,1.555304,-11.518478,6.42042\H,0,1.906376,-9.842065,6.823
 506\H,0,2.953051,-10.703849,5.700121\H,0,-1.727317,-7.893308,2.600177\
 H,0,-3.291591,-6.431886,3.45657\H,0,-2.093129,-5.77244,4.56515\H,0,-2.
 874797,-7.30067,4.937347\H,0,4.82812,0.684785,-0.816437\H,0,3.710173,3
 .434604,-2.706288\H,0,4.588171,1.902533,-2.825678\H,0,5.244771,3.22620
 1,-1.873716\\Version=EM64L-G09RevA.02\State=1-A\HF=-1295.6220355\RMSD=
 6.101e-09\Dipole=2.0004166,-0.3541518,-2.5800882\Quadrupole=16.8852325
 ,-25.6025611,8.7173286,4.1320259,3.097084,-4.1060671\PG=C01 [X(C20H36N
 4O4)]\\@


 MOST BUREAUCRACIES FUNCTION LIKE A SEPTIC TANK.
 THE LARGE CHUNKS RISE TO THE TOP.
 Job cpu time:  0 days  0 hours  5 minutes 11.6 seconds.
 File lengths (MBytes):  RWF=    132 Int=      0 D2E=      0 Chk=     10 Scr=      1
 Normal termination of Gaussian 09 at Thu Dec  5 19:15:04 2019.
