 Entering Gaussian System, Link 0=g09
 Input=CHI9_-170.gau
 Output=CHI9_-170.log
 Initial command:
 /home/marie/Utilities//g09/l1.exe /tmp/g09/Gau-13654.inp -scrdir=/tmp/g09/
 Entering Link 1 = /home/marie/Utilities//g09/l1.exe PID=     13656.
  
 Copyright (c) 1988,1990,1992,1993,1995,1998,2003,2009, Gaussian, Inc.
                  All Rights Reserved.
  
 This is part of the Gaussian(R) 09 program.  It is based on
 the Gaussian(R) 03 system (copyright 2003, Gaussian, Inc.),
 the Gaussian(R) 98 system (copyright 1998, Gaussian, Inc.),
 the Gaussian(R) 94 system (copyright 1995, Gaussian, Inc.),
 the Gaussian 92(TM) system (copyright 1992, Gaussian, Inc.),
 the Gaussian 90(TM) system (copyright 1990, Gaussian, Inc.),
 the Gaussian 88(TM) system (copyright 1988, Gaussian, Inc.),
 the Gaussian 86(TM) system (copyright 1986, Carnegie Mellon
 University), and the Gaussian 82(TM) system (copyright 1983,
 Carnegie Mellon University). Gaussian is a federally registered
 trademark of Gaussian, Inc.
  
 This software contains proprietary and confidential information,
 including trade secrets, belonging to Gaussian, Inc.
  
 This software is provided under written license and may be
 used, copied, transmitted, or stored only in accord with that
 written license.
  
 The following legend is applicable only to US Government
 contracts under FAR:
  
                    RESTRICTED RIGHTS LEGEND
  
 Use, reproduction and disclosure by the US Government is
 subject to restrictions as set forth in subparagraphs (a)
 and (c) of the Commercial Computer Software - Restricted
 Rights clause in FAR 52.227-19.
  
 Gaussian, Inc.
 340 Quinnipiac St., Bldg. 40, Wallingford CT 06492
  
  
 ---------------------------------------------------------------
 Warning -- This program may not be used in any manner that
 competes with the business of Gaussian, Inc. or will provide
 assistance to any competitor of Gaussian, Inc.  The licensee
 of this program is prohibited from giving any competitor of
 Gaussian, Inc. access to this program.  By using this program,
 the user acknowledges that Gaussian, Inc. is engaged in the
 business of creating and licensing software in the field of
 computational chemistry and represents and warrants to the
 licensee that it is not a competitor of Gaussian, Inc. and that
 it will not use this program in any manner prohibited above.
 ---------------------------------------------------------------
  

 Cite this work as:
 Gaussian 09, Revision A.02,
 M. J. Frisch, G. W. Trucks, H. B. Schlegel, G. E. Scuseria, 
 M. A. Robb, J. R. Cheeseman, G. Scalmani, V. Barone, B. Mennucci, 
 G. A. Petersson, H. Nakatsuji, M. Caricato, X. Li, H. P. Hratchian, 
 A. F. Izmaylov, J. Bloino, G. Zheng, J. L. Sonnenberg, M. Hada, 
 M. Ehara, K. Toyota, R. Fukuda, J. Hasegawa, M. Ishida, T. Nakajima, 
 Y. Honda, O. Kitao, H. Nakai, T. Vreven, J. A. Montgomery, Jr., 
 J. E. Peralta, F. Ogliaro, M. Bearpark, J. J. Heyd, E. Brothers, 
 K. N. Kudin, V. N. Staroverov, R. Kobayashi, J. Normand, 
 K. Raghavachari, A. Rendell, J. C. Burant, S. S. Iyengar, J. Tomasi, 
 M. Cossi, N. Rega, J. M. Millam, M. Klene, J. E. Knox, J. B. Cross, 
 V. Bakken, C. Adamo, J. Jaramillo, R. Gomperts, R. E. Stratmann, 
 O. Yazyev, A. J. Austin, R. Cammi, C. Pomelli, J. W. Ochterski, 
 R. L. Martin, K. Morokuma, V. G. Zakrzewski, G. A. Voth, 
 P. Salvador, J. J. Dannenberg, S. Dapprich, A. D. Daniels, 
 O. Farkas, J. B. Foresman, J. V. Ortiz, J. Cioslowski, 
 and D. J. Fox, Gaussian, Inc., Wallingford CT, 2009.
 
 ******************************************
 Gaussian 09:  EM64L-G09RevA.02 11-Jun-2009
                 5-Dec-2019 
 ******************************************
 %chk=CHI9_-170
 %NoSave
 ---------------------------------
 #SP HF/6-31G* Geom=(ModRedundant)
 ---------------------------------
 1/18=120,38=1/1;
 2/12=2,17=6,18=5,40=1/2;
 3/5=1,6=6,7=1,11=9,16=1,25=1,30=1/1,2,3;
 4//1;
 5/5=2,38=5/2;
 6/7=2,8=2,9=2,10=2,28=1/1;
 99/5=1,9=1/99;
 ------------
 paramfit run
 ------------
 Symbolic Z-matrix:
 Charge =  0 Multiplicity = 1
 C-CT--0.3208          0.        0.        0. 
 N-N--0.5622           1.44819   0.        0. 
 C-C-0.8053            2.1232    0.47592   1.07237 
 O-O--0.6151           1.59018   0.69673   2.12445 
 C-CX-0.0839           3.65051   0.59414   0.92154 
 C-CU--0.3230          4.1989    1.54925   1.98685 
 C-CU--0.0657          4.30775  -0.80912   1.02398 
 C-CU--0.0109          4.13357  -1.62278   2.31907 
 C-CU-0.0816           2.83273  -2.4333    2.48497 
 C-CM--0.2354          2.57934  -3.42359   1.37258 
 C-CM--0.2653          2.83409  -4.72199   1.37554 
 C-CU-0.1214           3.44273  -5.53566   2.49234 
 C-CU--0.0354          2.42774  -6.37022   3.29413 
 C-CU--0.0984          1.69389  -7.40262   2.4278 
 C-CU-0.1300           0.77427  -8.42854   3.13945 
 C-CU--0.3561          0.36884  -9.48761   2.10145 
 N-N--0.7186           1.52955  -9.06356   4.21082 
 C-C-0.8537            0.93195  -9.90822   5.10103 
 C-CT--0.3868          1.73041  -10.18176   6.35501 
 O-O--0.6323          -0.14517  -10.40042   4.90949 
 C-C-0.7903           -0.41472  -7.66859   3.76992 
 O-O--0.6136          -0.2978   -7.1455    4.84539 
 N-N--0.5650          -1.53298  -7.53441   3.02461 
 C-CT--0.3231         -2.70157  -6.87804   3.57394 
 N-N--0.7191           3.99741   1.07028  -0.42545 
 C-C-0.8539            3.58702   2.26716  -0.93409 
 C-CT--0.3903          4.32815   2.72766  -2.17214 
 O-O--0.6290           2.69713   2.90543  -0.4474 
 H-H1-0.1459          -0.40326   1.00615   0. 
 H-H1-0.1459          -0.36496  -0.516     0.87594 
 H-H1-0.1459          -0.34566  -0.52209  -0.88335 
 H-H-0.3572            1.90424   0.07091  -0.87936 
 H-HC-0.0997           3.93214   1.22176   2.98008 
 H-HC-0.0997           5.28092   1.59593   1.9075 
 H-HC-0.0997           3.79271   2.54059   1.8484 
 H-HC-0.0347           5.37458  -0.64325   0.89141 
 H-HC-0.0347           3.98464  -1.40332   0.17498 
 H-HC-0.0243           4.96157  -2.32476   2.35464 
 H-HC-0.0243           4.25012  -0.97572   3.18226 
 H-HC-0.0171           1.98572  -1.76405   2.56272 
 H-HC-0.0171           2.89564  -2.94811   3.43725 
 H-HA-0.1313           2.1355   -3.00918   0.48186 
 H-HA-0.1359           2.57948  -5.27639   0.48583 
 H-HC-0.0092           3.97152  -4.88991   3.18288 
 H-HC-0.0092           4.19182  -6.20202   2.06638 
 H-HC-0.0318           2.96562  -6.85691   4.10295 
 H-HC-0.0318           1.71458  -5.70792   3.767 
 H-HC-0.0435           2.42081  -7.97994   1.8605 
 H-HC-0.0435           1.08317  -6.87574   1.70409 
 H-HC-0.1066           1.25511  -10.03197   1.79687 
 H-HC-0.1066          -0.05074  -9.02691   1.21314 
 H-HC-0.1066          -0.33769  -10.19521   2.50873 
 H-H-0.3529            2.27094  -8.51896   4.58827 
 H-HC-0.1047           1.38494  -11.10244   6.80003 
 H-HC-0.1047           1.56098  -9.37063   7.05679 
 H-HC-0.1047           2.79459  -10.24591   6.15552 
 H-H-0.3615           -1.67796  -8.16519   2.27201 
 H-H1-0.1469          -3.4365   -6.766     2.78765 
 H-H1-0.1469          -2.43041  -5.90049   3.94472 
 H-H1-0.1469          -3.136    -7.446     4.3903 
 H-H-0.3570            4.82812   0.68479  -0.81644 
 H-HC-0.1060           3.71017   3.4346   -2.70629 
 H-HC-0.1060           4.58817   1.90253  -2.82568 
 H-HC-0.1060           5.24477   3.2262   -1.87372 
 
 The following ModRedundant input section has been read:
 D    *   14   15    * F                                                       
 Stoichiometry    C20H36N4O4
 Framework group  C1[X(C20H36N4O4)]
 Deg. of freedom   186
 Full point group                 C1      NOp   1
 Largest Abelian subgroup         C1      NOp   1
 Largest concise Abelian subgroup C1      NOp   1
                         Standard orientation:                         
 ---------------------------------------------------------------------
 Center     Atomic      Atomic             Coordinates (Angstroms)
 Number     Number       Type             X           Y           Z
 ---------------------------------------------------------------------
      1          6    20001001       -3.722264    2.935426    0.170759
      2          7    20001014       -4.087410    1.546388    0.356465
      3          6    20001002       -4.297811    0.753954   -0.720516
      4          8    20001024       -3.981893    1.078056   -1.831777
      5          6    90000001       -4.843497   -0.656796   -0.435215
      6          6    90000002       -5.454754   -1.238834   -1.714058
      7          6    90000002       -3.712330   -1.565362    0.118475
      8          6    90000002       -2.470373   -1.826708   -0.752661
      9          6    90000002       -1.354777   -0.762741   -0.745165
     10          6    20001004       -0.803310   -0.459905    0.628317
     11          6    20001004        0.299285   -0.941778    1.178624
     12          6    90000002        1.279513   -1.915435    0.569610
     13          6    90000002        2.574162   -1.267491    0.046525
     14          6    90000002        3.373402   -0.564692    1.152058
     15          6    90000002        4.783275   -0.023650    0.799671
     16          6    90000002        5.461693    0.396393    2.113735
     17          7    20001014        5.549728   -1.095539    0.179079
     18          6    20001002        6.780127   -0.868898   -0.366641
     19          6    20001001        7.277050   -1.955729   -1.292206
     20          8    20001024        7.424488    0.115838   -0.133757
     21          6    20001002        4.628337    1.119140   -0.229284
     22          8    20001024        4.517427    0.869940   -1.399552
     23          7    20001014        4.520784    2.377319    0.249673
     24          6    20001001        4.424419    3.499185   -0.661552
     25          7    20001014       -5.844690   -0.611478    0.640419
     26          6    20001002       -6.999435    0.110475    0.569572
     27          6    20001001       -8.046666   -0.248729    1.603205
     28          8    20001024       -7.172434    0.975251   -0.241829
     29          1    20001035       -4.523947    3.505782   -0.284156
     30          1    20001035       -2.850761    3.001980   -0.463888
     31          1    20001035       -3.485225    3.362672    1.137002
     32          1    20001029       -4.583496    1.311992    1.184259
     33          1    20001034       -4.734923   -1.257426   -2.518068
     34          1    20001034       -5.798125   -2.250990   -1.522032
     35          1    20001034       -6.292386   -0.638437   -2.037819
     36          1    20001034       -4.178100   -2.529701    0.309077
     37          1    20001034       -3.403824   -1.180327    1.085352
     38          1    20001034       -2.036042   -2.756651   -0.397441
     39          1    20001034       -2.769127   -2.007051   -1.780083
     40          1    20001034       -1.714028    0.154963   -1.192516
     41          1    20001034       -0.564667   -1.122867   -1.394680
     42          1    20001033       -1.385001    0.233967    1.213373
     43          1    20001033        0.540081   -0.606380    2.175262
     44          1    20001034        0.815669   -2.454090   -0.247804
     45          1    20001034        1.535159   -2.663418    1.319118
     46          1    20001034        3.167477   -2.047047   -0.423202
     47          1    20001034        2.330032   -0.564851   -0.739305
     48          1    20001034        3.503678   -1.244613    1.991266
     49          1    20001034        2.793091    0.273666    1.519135
     50          1    20001034        5.617024   -0.487157    2.721842
     51          1    20001034        4.833193    1.074916    2.681163
     52          1    20001034        6.422162    0.856919    1.937227
     53          1    20001029        5.010084   -1.788886   -0.286503
     54          1    20001034        8.351433   -1.888547   -1.371259
     55          1    20001034        6.844838   -1.796939   -2.275620
     56          1    20001034        6.994318   -2.945019   -0.949060
     57          1    20001029        4.852016    2.563989    1.166597
     58          1    20001035        4.225293    4.394517   -0.087399
     59          1    20001035        3.612195    3.337292   -1.354885
     60          1    20001035        5.338579    3.635766   -1.230244
     61          1    20001029       -5.849172   -1.394066    1.256117
     62          1    20001034       -8.718388    0.588454    1.725220
     63          1    20001034       -7.607305   -0.507394    2.560078
     64          1    20001034       -8.617670   -1.101470    1.250235
 ---------------------------------------------------------------------
 Rotational constants (GHZ):      0.4045087      0.0496257      0.0475311
 Standard basis: 6-31G(d) (6D, 7F)
 There are   492 symmetry adapted basis functions of A   symmetry.
 Integral buffers will be    131072 words long.
 Raffenetti 1 integral format.
 Two-electron integral symmetry is turned on.
   492 basis functions,   928 primitive gaussians,   492 cartesian basis functions
   108 alpha electrons      108 beta electrons
       nuclear repulsion energy      2683.5476969147 Hartrees.
 NAtoms=   64 NActive=   64 NUniq=   64 SFac= 7.50D-01 NAtFMM=   80 NAOKFM=F Big=T
 One-electron integrals computed using PRISM.
 NBasis=   492 RedAO= T  NBF=   492
 NBsUse=   492 1.00D-06 NBFU=   492
 Harris functional with IExCor=  205 diagonalized for initial guess.
 ExpMin= 1.61D-01 ExpMax= 5.48D+03 ExpMxC= 8.25D+02 IAcc=1 IRadAn=         1 AccDes= 0.00D+00
 HarFok:  IExCor=  205 AccDes= 0.00D+00 IRadAn=         1 IDoV= 1
 ScaDFX=  1.000000  1.000000  1.000000  1.000000
 FoFCou: FMM=F IPFlag=           0 FMFlag=      100000 FMFlg1=           1
         NFxFlg=           0 DoJE=T BraDBF=F KetDBF=T FulRan=T
         Omega=  0.000000  0.000000  1.000000  0.000000  0.000000 ICntrl=     500 IOpCl=  0
         NMat0=    1 NMatS0=    1 NMatT0=    0 NMatD0=    1 NMtDS0=    0 NMtDT0=    0
         I1Cent=           4 NGrid=           0.
 Petite list used in FoFCou.
 Initial guess orbital symmetries:
       Occupied  (A) (A) (A) (A) (A) (A) (A) (A) (A) (A) (A) (A)
                 (A) (A) (A) (A) (A) (A) (A) (A) (A) (A) (A) (A)
                 (A) (A) (A) (A) (A) (A) (A) (A) (A) (A) (A) (A)
                 (A) (A) (A) (A) (A) (A) (A) (A) (A) (A) (A) (A)
                 (A) (A) (A) (A) (A) (A) (A) (A) (A) (A) (A) (A)
                 (A) (A) (A) (A) (A) (A) (A) (A) (A) (A) (A) (A)
                 (A) (A) (A) (A) (A) (A) (A) (A) (A) (A) (A) (A)
                 (A) (A) (A) (A) (A) (A) (A) (A) (A) (A) (A) (A)
                 (A) (A) (A) (A) (A) (A) (A) (A) (A) (A) (A) (A)
       Virtual   (A) (A) (A) (A) (A) (A) (A) (A) (A) (A) (A) (A)
                 (A) (A) (A) (A) (A) (A) (A) (A) (A) (A) (A) (A)
                 (A) (A) (A) (A) (A) (A) (A) (A) (A) (A) (A) (A)
                 (A) (A) (A) (A) (A) (A) (A) (A) (A) (A) (A) (A)
                 (A) (A) (A) (A) (A) (A) (A) (A) (A) (A) (A) (A)
                 (A) (A) (A) (A) (A) (A) (A) (A) (A) (A) (A) (A)
                 (A) (A) (A) (A) (A) (A) (A) (A) (A) (A) (A) (A)
                 (A) (A) (A) (A) (A) (A) (A) (A) (A) (A) (A) (A)
                 (A) (A) (A) (A) (A) (A) (A) (A) (A) (A) (A) (A)
                 (A) (A) (A) (A) (A) (A) (A) (A) (A) (A) (A) (A)
                 (A) (A) (A) (A) (A) (A) (A) (A) (A) (A) (A) (A)
                 (A) (A) (A) (A) (A) (A) (A) (A) (A) (A) (A) (A)
                 (A) (A) (A) (A) (A) (A) (A) (A) (A) (A) (A) (A)
                 (A) (A) (A) (A) (A) (A) (A) (A) (A) (A) (A) (A)
                 (A) (A) (A) (A) (A) (A) (A) (A) (A) (A) (A) (A)
                 (A) (A) (A) (A) (A) (A) (A) (A) (A) (A) (A) (A)
                 (A) (A) (A) (A) (A) (A) (A) (A) (A) (A) (A) (A)
                 (A) (A) (A) (A) (A) (A) (A) (A) (A) (A) (A) (A)
                 (A) (A) (A) (A) (A) (A) (A) (A) (A) (A) (A) (A)
                 (A) (A) (A) (A) (A) (A) (A) (A) (A) (A) (A) (A)
                 (A) (A) (A) (A) (A) (A) (A) (A) (A) (A) (A) (A)
                 (A) (A) (A) (A) (A) (A) (A) (A) (A) (A) (A) (A)
                 (A) (A) (A) (A) (A) (A) (A) (A) (A) (A) (A) (A)
                 (A) (A) (A) (A) (A) (A) (A) (A) (A) (A) (A) (A)
                 (A) (A) (A) (A) (A) (A) (A) (A) (A) (A) (A) (A)
                 (A) (A) (A) (A) (A) (A) (A) (A) (A) (A) (A) (A)
                 (A) (A) (A) (A) (A) (A) (A) (A) (A) (A) (A) (A)
                 (A) (A) (A) (A) (A) (A) (A) (A) (A) (A) (A) (A)
                 (A) (A) (A) (A) (A) (A) (A) (A) (A) (A) (A) (A)
                 (A) (A) (A) (A) (A) (A) (A) (A) (A) (A) (A) (A)
                 (A) (A) (A) (A) (A) (A) (A) (A) (A) (A) (A) (A)
                 (A) (A) (A) (A) (A) (A) (A) (A) (A) (A) (A) (A)
 The electronic state of the initial guess is 1-A.
 Requested convergence on RMS density matrix=1.00D-08 within 128 cycles.
 Requested convergence on MAX density matrix=1.00D-06.
 Requested convergence on             energy=1.00D-06.
 No special actions if energy rises.
 Integral accuracy reduced to 1.0D-05 until final iterations.
 Initial convergence to 1.0D-05 achieved.  Increase integral accuracy.
 SCF Done:  E(RHF) =  -1295.62094686     A.U. after   14 cycles
             Convg  =    0.6170D-08             -V/T =  2.0012

 **********************************************************************

            Population analysis using the SCF density.

 **********************************************************************

 Orbital symmetries:
       Occupied  (A) (A) (A) (A) (A) (A) (A) (A) (A) (A) (A) (A)
                 (A) (A) (A) (A) (A) (A) (A) (A) (A) (A) (A) (A)
                 (A) (A) (A) (A) (A) (A) (A) (A) (A) (A) (A) (A)
                 (A) (A) (A) (A) (A) (A) (A) (A) (A) (A) (A) (A)
                 (A) (A) (A) (A) (A) (A) (A) (A) (A) (A) (A) (A)
                 (A) (A) (A) (A) (A) (A) (A) (A) (A) (A) (A) (A)
                 (A) (A) (A) (A) (A) (A) (A) (A) (A) (A) (A) (A)
                 (A) (A) (A) (A) (A) (A) (A) (A) (A) (A) (A) (A)
                 (A) (A) (A) (A) (A) (A) (A) (A) (A) (A) (A) (A)
       Virtual   (A) (A) (A) (A) (A) (A) (A) (A) (A) (A) (A) (A)
                 (A) (A) (A) (A) (A) (A) (A) (A) (A) (A) (A) (A)
                 (A) (A) (A) (A) (A) (A) (A) (A) (A) (A) (A) (A)
                 (A) (A) (A) (A) (A) (A) (A) (A) (A) (A) (A) (A)
                 (A) (A) (A) (A) (A) (A) (A) (A) (A) (A) (A) (A)
                 (A) (A) (A) (A) (A) (A) (A) (A) (A) (A) (A) (A)
                 (A) (A) (A) (A) (A) (A) (A) (A) (A) (A) (A) (A)
                 (A) (A) (A) (A) (A) (A) (A) (A) (A) (A) (A) (A)
                 (A) (A) (A) (A) (A) (A) (A) (A) (A) (A) (A) (A)
                 (A) (A) (A) (A) (A) (A) (A) (A) (A) (A) (A) (A)
                 (A) (A) (A) (A) (A) (A) (A) (A) (A) (A) (A) (A)
                 (A) (A) (A) (A) (A) (A) (A) (A) (A) (A) (A) (A)
                 (A) (A) (A) (A) (A) (A) (A) (A) (A) (A) (A) (A)
                 (A) (A) (A) (A) (A) (A) (A) (A) (A) (A) (A) (A)
                 (A) (A) (A) (A) (A) (A) (A) (A) (A) (A) (A) (A)
                 (A) (A) (A) (A) (A) (A) (A) (A) (A) (A) (A) (A)
                 (A) (A) (A) (A) (A) (A) (A) (A) (A) (A) (A) (A)
                 (A) (A) (A) (A) (A) (A) (A) (A) (A) (A) (A) (A)
                 (A) (A) (A) (A) (A) (A) (A) (A) (A) (A) (A) (A)
                 (A) (A) (A) (A) (A) (A) (A) (A) (A) (A) (A) (A)
                 (A) (A) (A) (A) (A) (A) (A) (A) (A) (A) (A) (A)
                 (A) (A) (A) (A) (A) (A) (A) (A) (A) (A) (A) (A)
                 (A) (A) (A) (A) (A) (A) (A) (A) (A) (A) (A) (A)
                 (A) (A) (A) (A) (A) (A) (A) (A) (A) (A) (A) (A)
                 (A) (A) (A) (A) (A) (A) (A) (A) (A) (A) (A) (A)
                 (A) (A) (A) (A) (A) (A) (A) (A) (A) (A) (A) (A)
                 (A) (A) (A) (A) (A) (A) (A) (A) (A) (A) (A) (A)
                 (A) (A) (A) (A) (A) (A) (A) (A) (A) (A) (A) (A)
                 (A) (A) (A) (A) (A) (A) (A) (A) (A) (A) (A) (A)
                 (A) (A) (A) (A) (A) (A) (A) (A) (A) (A) (A) (A)
                 (A) (A) (A) (A) (A) (A) (A) (A) (A) (A) (A) (A)
                 (A) (A) (A) (A) (A) (A) (A) (A) (A) (A) (A) (A)
 The electronic state is 1-A.
 Alpha  occ. eigenvalues --  -20.53651 -20.51976 -20.51842 -20.51598 -15.59612
 Alpha  occ. eigenvalues --  -15.57872 -15.57530 -15.57373 -11.35970 -11.34179
 Alpha  occ. eigenvalues --  -11.33856 -11.33653 -11.29030 -11.28550 -11.24968
 Alpha  occ. eigenvalues --  -11.24883 -11.24362 -11.24016 -11.23423 -11.22716
 Alpha  occ. eigenvalues --  -11.22684 -11.22580 -11.22459 -11.22266 -11.22062
 Alpha  occ. eigenvalues --  -11.21817 -11.21611 -11.20856  -1.40587  -1.39315
 Alpha  occ. eigenvalues --   -1.38700  -1.38043  -1.25435  -1.23499  -1.22590
 Alpha  occ. eigenvalues --   -1.22076  -1.10800  -1.09271  -1.07190  -1.04279
 Alpha  occ. eigenvalues --   -1.01267  -0.99313  -0.98743  -0.95510  -0.95143
 Alpha  occ. eigenvalues --   -0.94585  -0.92224  -0.87310  -0.85733  -0.82845
 Alpha  occ. eigenvalues --   -0.81378  -0.79499  -0.78809  -0.77177  -0.76839
 Alpha  occ. eigenvalues --   -0.71923  -0.71315  -0.71122  -0.68954  -0.67992
 Alpha  occ. eigenvalues --   -0.66725  -0.65851  -0.64435  -0.63954  -0.63727
 Alpha  occ. eigenvalues --   -0.62583  -0.62328  -0.61909  -0.61350  -0.61094
 Alpha  occ. eigenvalues --   -0.60910  -0.59897  -0.59289  -0.58718  -0.58387
 Alpha  occ. eigenvalues --   -0.58280  -0.57868  -0.56554  -0.56472  -0.56107
 Alpha  occ. eigenvalues --   -0.55573  -0.54859  -0.54814  -0.54538  -0.53987
 Alpha  occ. eigenvalues --   -0.53110  -0.52814  -0.52446  -0.52131  -0.51683
 Alpha  occ. eigenvalues --   -0.51033  -0.50289  -0.49740  -0.49264  -0.48641
 Alpha  occ. eigenvalues --   -0.48450  -0.46940  -0.46404  -0.44600  -0.42870
 Alpha  occ. eigenvalues --   -0.41942  -0.41501  -0.41008  -0.39286  -0.38805
 Alpha  occ. eigenvalues --   -0.38312  -0.38211  -0.34558
 Alpha virt. eigenvalues --    0.17313   0.18798   0.19798   0.19993   0.20237
 Alpha virt. eigenvalues --    0.21584   0.22268   0.23048   0.23255   0.23961
 Alpha virt. eigenvalues --    0.25342   0.25594   0.26643   0.27158   0.27724
 Alpha virt. eigenvalues --    0.27953   0.28416   0.28761   0.29208   0.29506
 Alpha virt. eigenvalues --    0.29680   0.30173   0.31137   0.31582   0.31640
 Alpha virt. eigenvalues --    0.31906   0.32260   0.32570   0.33180   0.33615
 Alpha virt. eigenvalues --    0.33885   0.34379   0.34671   0.34943   0.35375
 Alpha virt. eigenvalues --    0.35469   0.35746   0.36400   0.37031   0.37252
 Alpha virt. eigenvalues --    0.38414   0.38748   0.39356   0.39575   0.40063
 Alpha virt. eigenvalues --    0.40679   0.41306   0.42103   0.42518   0.44075
 Alpha virt. eigenvalues --    0.44638   0.45028   0.45373   0.46136   0.47003
 Alpha virt. eigenvalues --    0.48301   0.49065   0.49258   0.52193   0.52941
 Alpha virt. eigenvalues --    0.54053   0.55152   0.57481   0.58836   0.60044
 Alpha virt. eigenvalues --    0.61836   0.63320   0.64460   0.68861   0.70542
 Alpha virt. eigenvalues --    0.70983   0.71318   0.71993   0.72519   0.73297
 Alpha virt. eigenvalues --    0.73521   0.74453   0.74945   0.75992   0.76491
 Alpha virt. eigenvalues --    0.76766   0.77274   0.77897   0.78540   0.78975
 Alpha virt. eigenvalues --    0.79701   0.79962   0.80586   0.81109   0.82268
 Alpha virt. eigenvalues --    0.83141   0.84158   0.84515   0.85408   0.86397
 Alpha virt. eigenvalues --    0.87206   0.87563   0.88879   0.90176   0.90541
 Alpha virt. eigenvalues --    0.91804   0.92408   0.92493   0.93227   0.93901
 Alpha virt. eigenvalues --    0.94663   0.95766   0.96855   0.97123   0.97830
 Alpha virt. eigenvalues --    0.98521   0.98736   0.99867   1.00337   1.00392
 Alpha virt. eigenvalues --    1.01499   1.02238   1.02525   1.02845   1.03640
 Alpha virt. eigenvalues --    1.04126   1.04604   1.05592   1.06714   1.06795
 Alpha virt. eigenvalues --    1.07265   1.08161   1.08915   1.10629   1.11050
 Alpha virt. eigenvalues --    1.11936   1.12080   1.13176   1.13363   1.14259
 Alpha virt. eigenvalues --    1.14510   1.14779   1.14953   1.15519   1.16020
 Alpha virt. eigenvalues --    1.16069   1.16643   1.16869   1.17249   1.17820
 Alpha virt. eigenvalues --    1.18142   1.18364   1.18822   1.19033   1.19448
 Alpha virt. eigenvalues --    1.19641   1.20000   1.20538   1.21334   1.21536
 Alpha virt. eigenvalues --    1.21768   1.22127   1.22447   1.22583   1.22645
 Alpha virt. eigenvalues --    1.23151   1.23669   1.24113   1.25224   1.26025
 Alpha virt. eigenvalues --    1.26373   1.26915   1.27655   1.28295   1.28907
 Alpha virt. eigenvalues --    1.29513   1.30562   1.31060   1.31566   1.32602
 Alpha virt. eigenvalues --    1.33482   1.33938   1.36087   1.36534   1.37957
 Alpha virt. eigenvalues --    1.38265   1.38982   1.40731   1.42389   1.42595
 Alpha virt. eigenvalues --    1.43978   1.45577   1.46424   1.47658   1.48003
 Alpha virt. eigenvalues --    1.50739   1.51465   1.53472   1.54083   1.55593
 Alpha virt. eigenvalues --    1.56709   1.58185   1.59295   1.60502   1.61557
 Alpha virt. eigenvalues --    1.62010   1.63315   1.64977   1.66104   1.68291
 Alpha virt. eigenvalues --    1.69145   1.71679   1.71819   1.72335   1.72678
 Alpha virt. eigenvalues --    1.73776   1.74967   1.78305   1.78585   1.79807
 Alpha virt. eigenvalues --    1.80177   1.81476   1.83159   1.87146   1.88492
 Alpha virt. eigenvalues --    1.89201   1.90624   1.91645   1.92832   1.94558
 Alpha virt. eigenvalues --    1.96018   1.96757   1.98378   1.99872   2.01711
 Alpha virt. eigenvalues --    2.05299   2.05723   2.06158   2.07459   2.08140
 Alpha virt. eigenvalues --    2.08346   2.10751   2.11360   2.11786   2.12476
 Alpha virt. eigenvalues --    2.12990   2.13513   2.14547   2.15745   2.16171
 Alpha virt. eigenvalues --    2.16534   2.18167   2.18372   2.18958   2.19835
 Alpha virt. eigenvalues --    2.20661   2.20885   2.21835   2.23223   2.23463
 Alpha virt. eigenvalues --    2.23968   2.25934   2.26254   2.27014   2.27536
 Alpha virt. eigenvalues --    2.28201   2.28779   2.29878   2.31259   2.31310
 Alpha virt. eigenvalues --    2.33565   2.33977   2.34525   2.35149   2.35710
 Alpha virt. eigenvalues --    2.36748   2.37290   2.37844   2.38296   2.38950
 Alpha virt. eigenvalues --    2.39925   2.40934   2.41232   2.43284   2.44895
 Alpha virt. eigenvalues --    2.45302   2.45827   2.47405   2.49356   2.50236
 Alpha virt. eigenvalues --    2.51586   2.52508   2.54478   2.55138   2.55551
 Alpha virt. eigenvalues --    2.56879   2.57341   2.57725   2.59336   2.60490
 Alpha virt. eigenvalues --    2.62422   2.63303   2.64337   2.64468   2.64832
 Alpha virt. eigenvalues --    2.66422   2.68478   2.69972   2.70595   2.71010
 Alpha virt. eigenvalues --    2.71994   2.73562   2.74485   2.75013   2.76416
 Alpha virt. eigenvalues --    2.76652   2.78025   2.78642   2.79302   2.79375
 Alpha virt. eigenvalues --    2.81276   2.82441   2.84029   2.85162   2.86433
 Alpha virt. eigenvalues --    2.87783   2.88396   2.91025   2.91536   2.95919
 Alpha virt. eigenvalues --    2.96644   2.97754   2.98341   2.98470   3.01990
 Alpha virt. eigenvalues --    3.03688   3.04477   3.04893   3.06507   3.06728
 Alpha virt. eigenvalues --    3.11304   3.11854   3.12776   3.14079   3.15418
 Alpha virt. eigenvalues --    3.16706   3.18669   3.22081   3.29607   3.30547
 Alpha virt. eigenvalues --    3.34347   3.34621   3.38749   3.40536   3.41311
 Alpha virt. eigenvalues --    3.42511   3.43017   3.53283   3.55814   3.57727
 Alpha virt. eigenvalues --    3.60152   4.38757   4.40922   4.44711   4.46848
 Alpha virt. eigenvalues --    4.49198   4.52084   4.55273   4.57874   4.61166
 Alpha virt. eigenvalues --    4.63263   4.66706   4.67564   4.68577   4.69653
 Alpha virt. eigenvalues --    4.71351   4.76934   4.78858   4.82952   4.84563
 Alpha virt. eigenvalues --    4.87426   4.88037   4.93515   4.95205   4.98852
 Alpha virt. eigenvalues --    5.03208   5.11993   5.21941   5.24306
          Condensed to atoms (all electrons):
 Mulliken atomic charges:
              1
     1  C   -0.279810
     2  N   -0.783466
     3  C    0.821784
     4  O   -0.627929
     5  C    0.102375
     6  C   -0.472800
     7  C   -0.334272
     8  C   -0.312018
     9  C   -0.373690
    10  C   -0.177912
    11  C   -0.177677
    12  C   -0.351538
    13  C   -0.315857
    14  C   -0.326212
    15  C    0.091300
    16  C   -0.510937
    17  N   -0.793918
    18  C    0.768323
    19  C   -0.596528
    20  O   -0.614398
    21  C    0.816597
    22  O   -0.636408
    23  N   -0.804854
    24  C   -0.275426
    25  N   -0.843071
    26  C    0.744563
    27  C   -0.588677
    28  O   -0.591680
    29  H    0.187003
    30  H    0.198777
    31  H    0.162168
    32  H    0.391256
    33  H    0.198948
    34  H    0.144022
    35  H    0.212604
    36  H    0.161357
    37  H    0.182100
    38  H    0.164166
    39  H    0.179923
    40  H    0.214303
    41  H    0.174606
    42  H    0.180982
    43  H    0.170073
    44  H    0.176542
    45  H    0.161899
    46  H    0.141172
    47  H    0.206022
    48  H    0.172877
    49  H    0.187354
    50  H    0.183699
    51  H    0.148237
    52  H    0.226843
    53  H    0.396281
    54  H    0.211054
    55  H    0.209541
    56  H    0.176010
    57  H    0.395093
    58  H    0.164282
    59  H    0.200164
    60  H    0.185041
    61  H    0.382574
    62  H    0.218654
    63  H    0.177160
    64  H    0.201351
 Sum of Mulliken atomic charges =   0.00000
 Mulliken charges with hydrogens summed into heavy atoms:
              1
     1  C    0.268138
     2  N   -0.392209
     3  C    0.821784
     4  O   -0.627929
     5  C    0.102375
     6  C    0.082775
     7  C    0.009184
     8  C    0.032071
     9  C    0.015220
    10  C    0.003070
    11  C   -0.007604
    12  C   -0.013098
    13  C    0.031337
    14  C    0.034019
    15  C    0.091300
    16  C    0.047841
    17  N   -0.397636
    18  C    0.768323
    19  C    0.000077
    20  O   -0.614398
    21  C    0.816597
    22  O   -0.636408
    23  N   -0.409761
    24  C    0.274061
    25  N   -0.460497
    26  C    0.744563
    27  C    0.008487
    28  O   -0.591680
 Sum of Mulliken charges with hydrogens summed into heavy atoms =   0.00000
 Electronic spatial extent (au):  <R**2>=          22026.4025
 Charge=              0.0000 electrons
 Dipole moment (field-independent basis, Debye):
    X=             -2.7920    Y=             -3.8813    Z=              7.0007  Tot=              8.4776
 Quadrupole moment (field-independent basis, Debye-Ang):
   XX=           -193.6442   YY=           -154.8579   ZZ=           -174.0631
   XY=             12.0586   XZ=            -19.6490   YZ=             10.9542
 Traceless Quadrupole moment (field-independent basis, Debye-Ang):
   XX=            -19.4558   YY=             19.3305   ZZ=              0.1254
   XY=             12.0586   XZ=            -19.6490   YZ=             10.9542
 Octapole moment (field-independent basis, Debye-Ang**2):
  XXX=           -299.5677  YYY=             54.5969  ZZZ=             16.8614  XYY=             54.9015
  XXY=           -197.4311  XXZ=            189.0855  XZZ=              3.4190  YZZ=             -2.8856
  YYZ=              2.6607  XYZ=             10.8951
 Hexadecapole moment (field-independent basis, Debye-Ang**3):
 XXXX=         -27051.1446 YYYY=          -2363.8720 ZZZZ=          -1311.7913 XXXY=            366.5145
 XXXZ=          -1104.8346 YYYX=             80.8432 YYYZ=              1.9337 ZZZX=            -66.5316
 ZZZY=             26.5411 XXYY=          -4224.8116 XXZZ=          -4296.5193 YYZZ=           -627.4099
 XXYZ=            274.6845 YYXZ=            -63.8245 ZZXY=             22.1717
 N-N= 2.683547696915D+03 E-N=-8.399133065000D+03  KE= 1.294017929804D+03
 1\1\GINC-MOSURA\SP\RHF\6-31G(d)\C20H36N4O4\MARIE\05-Dec-2019\0\\#SP HF
 /6-31G* Geom=(ModRedundant)\\paramfit run\\0,1\C,0,0.,0.,0.\N,0,1.4481
 87,0.,0.\C,0,2.1232,0.47592,1.072365\O,0,1.590179,0.696732,2.124447\C,
 0,3.650505,0.594143,0.921539\C,0,4.198902,1.549248,1.986845\C,0,4.3077
 51,-0.809116,1.023981\C,0,4.133566,-1.622781,2.319066\C,0,2.832729,-2.
 433298,2.484965\C,0,2.579342,-3.423586,1.372579\C,0,2.834093,-4.721989
 ,1.375535\C,0,3.442731,-5.535663,2.492337\C,0,2.42774,-6.370218,3.2941
 33\C,0,1.693892,-7.402618,2.427801\C,0,0.774274,-8.428536,3.139447\C,0
 ,0.368838,-9.487611,2.101453\N,0,1.529549,-9.063556,4.210821\C,0,0.931
 951,-9.908219,5.101034\C,0,1.730409,-10.181755,6.355007\O,0,-0.145171,
 -10.400419,4.90949\C,0,-0.414721,-7.668586,3.769915\O,0,-0.297802,-7.1
 45499,4.845387\N,0,-1.532975,-7.534407,3.024605\C,0,-2.701572,-6.87804
 3,3.573938\N,0,3.997412,1.070275,-0.425452\C,0,3.587019,2.267163,-0.93
 4086\C,0,4.328148,2.727659,-2.172145\O,0,2.697134,2.905425,-0.447397\H
 ,0,-0.403259,1.006147,0.\H,0,-0.36496,-0.516002,0.875939\H,0,-0.345658
 ,-0.522086,-0.883346\H,0,1.904244,0.070913,-0.879357\H,0,3.932135,1.22
 176,2.980082\H,0,5.28092,1.595925,1.9075\H,0,3.792711,2.540594,1.84839
 5\H,0,5.374584,-0.64325,0.891407\H,0,3.984642,-1.403324,0.174983\H,0,4
 .961565,-2.324757,2.354635\H,0,4.250121,-0.975721,3.182259\H,0,1.98572
 4,-1.764045,2.562723\H,0,2.895638,-2.94811,3.437249\H,0,2.135502,-3.00
 9181,0.481856\H,0,2.579482,-5.276386,0.485828\H,0,3.971519,-4.889909,3
 .182881\H,0,4.191817,-6.202016,2.066382\H,0,2.965623,-6.85691,4.102952
 \H,0,1.714584,-5.707921,3.766998\H,0,2.42081,-7.979938,1.860503\H,0,1.
 083167,-6.875737,1.704087\H,0,1.255115,-10.031966,1.796868\H,0,-0.0507
 38,-9.026914,1.213143\H,0,-0.337686,-10.195206,2.508728\H,0,2.27094,-8
 .518962,4.588271\H,0,1.384939,-11.102445,6.800025\H,0,1.560976,-9.3706
 33,7.056789\H,0,2.794585,-10.24591,6.155515\H,0,-1.677957,-8.165192,2.
 272009\H,0,-3.436502,-6.765996,2.787652\H,0,-2.430406,-5.900485,3.9447
 15\H,0,-3.135997,-7.445999,4.390305\H,0,4.82812,0.684785,-0.816437\H,0
 ,3.710173,3.434604,-2.706288\H,0,4.588171,1.902533,-2.825678\H,0,5.244
 771,3.226201,-1.873716\\Version=EM64L-G09RevA.02\State=1-A\HF=-1295.62
 09469\RMSD=6.170e-09\Dipole=2.0947962,-0.3961114,-2.5650188\Quadrupole
 =15.5812751,-25.8075516,10.2262765,5.0406387,4.513184,-3.942182\PG=C01
  [X(C20H36N4O4)]\\@


 NOBODY LOSES ALL THE TIME
 I HAD AN UNCLE NAMED
 SOL WHO WAS A BORN FAILURE AND
 NEARLY EVERYBODY SAID HE SHOULD HAVE GONE
 INTO VAUDEVILLE PERHAPS BECAUSE MY UNCLE SOL COULD
 SING MCCANN HE WAS A DIVER ON XMAS EVE LIKE HELL ITSELF WHICH
 MAY OR MAY NOT ACCOUNT FOR THE FACT THAT MY UNCLE
 SOL INDULGED IN THAT POSSIBLY MOST INEXCUSABLE
 OF ALL TO USE A HIGHFALOOTIN PHRASE
 LUXURIES THAT IS OR TO
 WIT FARMING AND BE
 IT NEEDLESSLY
 ADDED
 MY UNCLE SOL'S FARM
 FAILED BECAUSE THE CHICKENS
 ATE THE VEGETABLES SO
 MY UNCLE SOL HAD A
 CHICKEN FARM TILL THE
 SKUNKS ATE THE CHICKENS WHEN 
 MY UNCLE SOL
 HAD A SKUNK FARM BUT
 THE SKUNKS CAUGHT COLD AND
 DIED AND SO
 MY UNCLE SOL IMITATED THE
 SKUNKS IN A SUBTLE MANNER
 OR BY DROWNING HIMSELF IN THE WATERTANK
 BUT SOMEBODY WHO'D GIVEN MY UNCLE SOL A VICTOR
 VICTROLA AND RECORDS WHILE HE LIVED PRESENTED TO
 HIM UPON THE AUSPICIOUS OCCASION OF HIS DECEASE A
 SCRUMPTIOUS NOT TO MENTION SPLENDIFEROUS FUNERAL WITH
 TALL BOYS IN BLACK GLOVES AND FLOWERS AND EVERYTHING AND
 I REMEMBER WE ALL CRIED LIKE THE MISSOURI
 WHEN MY UNCLE SOL'S COFFIN LURCHED BECAUSE
 SOMEBODY PRESSED A BUTTON
 (AND DOWN WENT
 MY UNCLE
 SOL
 AND STARTED A WORM FARM)
           E. E. CUMMINGS
 Job cpu time:  0 days  0 hours  4 minutes 58.9 seconds.
 File lengths (MBytes):  RWF=    132 Int=      0 D2E=      0 Chk=     10 Scr=      1
 Normal termination of Gaussian 09 at Thu Dec  5 19:20:04 2019.
