 Entering Gaussian System, Link 0=g09
 Input=PHI_-30.gau
 Output=PHI_-30.log
 Initial command:
 /home/marie/Utilities//g09/l1.exe /tmp/g09/Gau-3331.inp -scrdir=/tmp/g09/
 Entering Link 1 = /home/marie/Utilities//g09/l1.exe PID=      3333.
  
 Copyright (c) 1988,1990,1992,1993,1995,1998,2003,2009, Gaussian, Inc.
                  All Rights Reserved.
  
 This is part of the Gaussian(R) 09 program.  It is based on
 the Gaussian(R) 03 system (copyright 2003, Gaussian, Inc.),
 the Gaussian(R) 98 system (copyright 1998, Gaussian, Inc.),
 the Gaussian(R) 94 system (copyright 1995, Gaussian, Inc.),
 the Gaussian 92(TM) system (copyright 1992, Gaussian, Inc.),
 the Gaussian 90(TM) system (copyright 1990, Gaussian, Inc.),
 the Gaussian 88(TM) system (copyright 1988, Gaussian, Inc.),
 the Gaussian 86(TM) system (copyright 1986, Carnegie Mellon
 University), and the Gaussian 82(TM) system (copyright 1983,
 Carnegie Mellon University). Gaussian is a federally registered
 trademark of Gaussian, Inc.
  
 This software contains proprietary and confidential information,
 including trade secrets, belonging to Gaussian, Inc.
  
 This software is provided under written license and may be
 used, copied, transmitted, or stored only in accord with that
 written license.
  
 The following legend is applicable only to US Government
 contracts under FAR:
  
                    RESTRICTED RIGHTS LEGEND
  
 Use, reproduction and disclosure by the US Government is
 subject to restrictions as set forth in subparagraphs (a)
 and (c) of the Commercial Computer Software - Restricted
 Rights clause in FAR 52.227-19.
  
 Gaussian, Inc.
 340 Quinnipiac St., Bldg. 40, Wallingford CT 06492
  
  
 ---------------------------------------------------------------
 Warning -- This program may not be used in any manner that
 competes with the business of Gaussian, Inc. or will provide
 assistance to any competitor of Gaussian, Inc.  The licensee
 of this program is prohibited from giving any competitor of
 Gaussian, Inc. access to this program.  By using this program,
 the user acknowledges that Gaussian, Inc. is engaged in the
 business of creating and licensing software in the field of
 computational chemistry and represents and warrants to the
 licensee that it is not a competitor of Gaussian, Inc. and that
 it will not use this program in any manner prohibited above.
 ---------------------------------------------------------------
  

 Cite this work as:
 Gaussian 09, Revision A.02,
 M. J. Frisch, G. W. Trucks, H. B. Schlegel, G. E. Scuseria, 
 M. A. Robb, J. R. Cheeseman, G. Scalmani, V. Barone, B. Mennucci, 
 G. A. Petersson, H. Nakatsuji, M. Caricato, X. Li, H. P. Hratchian, 
 A. F. Izmaylov, J. Bloino, G. Zheng, J. L. Sonnenberg, M. Hada, 
 M. Ehara, K. Toyota, R. Fukuda, J. Hasegawa, M. Ishida, T. Nakajima, 
 Y. Honda, O. Kitao, H. Nakai, T. Vreven, J. A. Montgomery, Jr., 
 J. E. Peralta, F. Ogliaro, M. Bearpark, J. J. Heyd, E. Brothers, 
 K. N. Kudin, V. N. Staroverov, R. Kobayashi, J. Normand, 
 K. Raghavachari, A. Rendell, J. C. Burant, S. S. Iyengar, J. Tomasi, 
 M. Cossi, N. Rega, J. M. Millam, M. Klene, J. E. Knox, J. B. Cross, 
 V. Bakken, C. Adamo, J. Jaramillo, R. Gomperts, R. E. Stratmann, 
 O. Yazyev, A. J. Austin, R. Cammi, C. Pomelli, J. W. Ochterski, 
 R. L. Martin, K. Morokuma, V. G. Zakrzewski, G. A. Voth, 
 P. Salvador, J. J. Dannenberg, S. Dapprich, A. D. Daniels, 
 O. Farkas, J. B. Foresman, J. V. Ortiz, J. Cioslowski, 
 and D. J. Fox, Gaussian, Inc., Wallingford CT, 2009.
 
 ******************************************
 Gaussian 09:  EM64L-G09RevA.02 11-Jun-2009
                 5-Dec-2019 
 ******************************************
 %chk=PHI_-30
 %NoSave
 ---------------------------------
 #SP HF/6-31G* Geom=(ModRedundant)
 ---------------------------------
 1/18=120,38=1/1;
 2/12=2,17=6,18=5,40=1/2;
 3/5=1,6=6,7=1,11=9,16=1,25=1,30=1/1,2,3;
 4//1;
 5/5=2,38=5/2;
 6/7=2,8=2,9=2,10=2,28=1/1;
 99/5=1,9=1/99;
 ------------
 paramfit run
 ------------
 Symbolic Z-matrix:
 Charge =  0 Multiplicity = 1
 C-CT--0.3208          0.        0.        0. 
 N-N--0.5622           1.44819   0.        0. 
 C-C-0.8053            2.1232    0.47592   1.07237 
 O-O--0.6151           1.59018   0.69673   2.12445 
 C-CX-0.0839           3.65051   0.59414   0.92154 
 C-CU--0.3230          4.1989    1.54925   1.98685 
 C-CU--0.0657          4.30775  -0.80912   1.02398 
 C-CU--0.0109          4.13357  -1.62278   2.31907 
 C-CU-0.0816           2.83273  -2.4333    2.48497 
 C-CM--0.2354          2.57934  -3.42359   1.37258 
 C-CM--0.2653          2.83409  -4.72199   1.37554 
 C-CU-0.1214           3.44273  -5.53566   2.49234 
 C-CU--0.0354          2.42774  -6.37022   3.29413 
 C-CU--0.0984          1.69389  -7.40262   2.4278 
 C-CU-0.1300           0.77427  -8.42854   3.13945 
 C-CU--0.3561          0.11889  -9.29697   2.05329 
 N-N--0.7186           1.59533  -9.26768   4.00156 
 C-C-0.8537            1.03678  -10.16777   4.86232 
 C-CT--0.3868          1.96438  -10.67876   5.94086 
 O-O--0.6323          -0.10329  -10.53089   4.77553 
 C-C-0.7903           -0.22836  -7.65709   4.02732 
 O-O--0.6136           0.09     -7.29671   5.12854 
 N-N--0.5650          -1.41662  -7.32362   3.47884 
 C-CT--0.3231         -2.42144  -6.64525   4.27153 
 N-N--0.7191           3.99741   1.07028  -0.42545 
 C-C-0.8539            3.24553   0.81707  -1.53461 
 C-CT--0.3903          3.56774   1.67629  -2.73962 
 O-O--0.6290           2.39902  -0.03076  -1.56205 
 H-H1-0.1459          -0.40326   1.00615   0. 
 H-H1-0.1459          -0.36496  -0.516     0.87594 
 H-H1-0.1459          -0.34566  -0.52209  -0.88335 
 H-H-0.3572            1.90424   0.07091  -0.87936 
 H-HC-0.0997           3.93214   1.22176   2.98008 
 H-HC-0.0997           5.28092   1.59593   1.9075 
 H-HC-0.0997           3.79271   2.54059   1.8484 
 H-HC-0.0347           5.37458  -0.64325   0.89141 
 H-HC-0.0347           3.98464  -1.40332   0.17498 
 H-HC-0.0243           4.96157  -2.32476   2.35464 
 H-HC-0.0243           4.25012  -0.97572   3.18226 
 H-HC-0.0171           1.98572  -1.76405   2.56272 
 H-HC-0.0171           2.89564  -2.94811   3.43725 
 H-HA-0.1313           2.1355   -3.00918   0.48186 
 H-HA-0.1359           2.57948  -5.27639   0.48583 
 H-HC-0.0092           3.97152  -4.88991   3.18288 
 H-HC-0.0092           4.19182  -6.20202   2.06638 
 H-HC-0.0318           2.96562  -6.85691   4.10295 
 H-HC-0.0318           1.71458  -5.70792   3.767 
 H-HC-0.0435           2.42081  -7.97994   1.8605 
 H-HC-0.0435           1.08317  -6.87574   1.70409 
 H-HC-0.1066           0.89119  -9.87253   1.55643 
 H-HC-0.1066          -0.36551  -8.68471   1.29971 
 H-HC-0.1066          -0.59793  -9.98679   2.47289 
 H-H-0.3529            2.43581  -8.84784   4.32721 
 H-HC-0.1047           1.58519  -11.61637   6.31792 
 H-HC-0.1047           1.981    -9.95798   6.75284 
 H-HC-0.1047           2.97817  -10.81065   5.57862 
 H-H-0.3615           -1.73026  -7.83136   2.68567 
 H-H1-0.1469          -3.24021  -6.36249   3.623 
 H-H1-0.1469          -1.99805  -5.75507   4.71305 
 H-H1-0.1469          -2.79943  -7.27697   5.06891 
 H-H-0.3570            4.5768    1.87944  -0.45888 
 H-HC-0.1060           3.22991   1.16822  -3.63109 
 H-HC-0.1060           4.62768   1.88984  -2.81999 
 H-HC-0.1060           3.0368    2.61919  -2.65693 
 
 The following ModRedundant input section has been read:
 D    *    5   25    * F                                                       
 Stoichiometry    C20H36N4O4
 Framework group  C1[X(C20H36N4O4)]
 Deg. of freedom   186
 Full point group                 C1      NOp   1
 Largest Abelian subgroup         C1      NOp   1
 Largest concise Abelian subgroup C1      NOp   1
                         Standard orientation:                         
 ---------------------------------------------------------------------
 Center     Atomic      Atomic             Coordinates (Angstroms)
 Number     Number       Type             X           Y           Z
 ---------------------------------------------------------------------
      1          6    20001001       -3.954333    2.861742   -0.078129
      2          7    20001014       -4.294508    1.464370    0.091804
      3          6    20001002       -4.452465    0.671266   -0.993619
      4          8    20001024       -4.108067    1.006115   -2.093170
      5          6    90000001       -4.975777   -0.752131   -0.730047
      6          6    90000002       -5.532413   -1.343002   -2.029612
      7          6    90000002       -3.843282   -1.637529   -0.142571
      8          6    90000002       -2.568373   -1.868455   -0.973785
      9          6    90000002       -1.477380   -0.780244   -0.927237
     10          6    20001004       -0.977375   -0.470151    0.464206
     11          6    20001004        0.117254   -0.929578    1.048563
     12          6    90000002        1.137907   -1.879310    0.468884
     13          6    90000002        2.434139   -1.201228   -0.010232
     14          6    90000002        3.181543   -0.484887    1.122534
     15          6    90000002        4.589762    0.088257    0.817458
     16          6    90000002        5.086312    0.800858    2.085956
     17          7    20001014        5.482598   -1.018402    0.501736
     18          6    20001002        6.753106   -0.803585    0.051490
     19          6    20001001        7.414874   -2.003587   -0.586368
     20          8    20001024        7.309177    0.254704    0.151251
     21          6    20001002        4.490542    1.000243   -0.426392
     22          8    20001024        4.530384    0.526401   -1.529937
     23          7    20001014        4.256938    2.313960   -0.217686
     24          6    20001001        4.203340    3.232300   -1.336607
     25          7    20001014       -6.011936   -0.732599    0.312749
     26          6    20001002       -6.048272    0.178757    1.326545
     27          6    20001001       -7.362853    0.255862    2.074911
     28          8    20001024       -5.107183    0.862099    1.615570
     29          1    20001035       -4.753315    3.415914   -0.557160
     30          1    20001035       -3.064475    2.949661   -0.684055
     31          1    20001035       -3.758114    3.290722    0.896463
     32          1    20001029       -4.811764    1.216232    0.902457
     33          1    20001034       -4.786762   -1.342952   -2.809956
     34          1    20001034       -5.859360   -2.363129   -1.851611
     35          1    20001034       -6.372215   -0.760044   -2.378638
     36          1    20001034       -4.293543   -2.612537    0.030180
     37          1    20001034       -3.574739   -1.249181    0.834850
     38          1    20001034       -2.125298   -2.789856   -0.607282
     39          1    20001034       -2.829739   -2.051737   -2.010834
     40          1    20001034       -1.842186    0.130893   -1.383427
     41          1    20001034       -0.658945   -1.120637   -1.551843
     42          1    20001033       -1.592841    0.208713    1.032060
     43          1    20001033        0.318274   -0.592448    2.053399
     44          1    20001034        0.712712   -2.425178   -0.364605
     45          1    20001034        1.385681   -2.624102    1.224190
     46          1    20001034        3.059391   -1.965903   -0.462679
     47          1    20001034        2.200047   -0.501388   -0.801594
     48          1    20001034        3.299644   -1.164705    1.963625
     49          1    20001034        2.571302    0.339219    1.472968
     50          1    20001034        5.219997    0.063097    2.868527
     51          1    20001034        4.358767    1.523198    2.441322
     52          1    20001034        6.033066    1.293324    1.922026
     53          1    20001029        5.040807   -1.827274    0.128564
     54          1    20001034        8.485620   -1.868822   -0.566260
     55          1    20001034        7.091278   -2.067847   -1.620912
     56          1    20001034        7.150882   -2.929175   -0.086390
     57          1    20001029        4.468498    2.695915    0.673752
     58          1    20001035        3.888491    4.201686   -0.973174
     59          1    20001035        3.487485    2.879287   -2.064315
     60          1    20001035        5.168032    3.329908   -1.824046
     61          1    20001029       -6.879963   -1.152054    0.063483
     62          1    20001034       -7.184138    0.681248    3.051682
     63          1    20001034       -7.833245   -0.715381    2.179636
     64          1    20001034       -8.043023    0.905903    1.533972
 ---------------------------------------------------------------------
 Rotational constants (GHZ):      0.3788338      0.0527439      0.0512613
 Standard basis: 6-31G(d) (6D, 7F)
 There are   492 symmetry adapted basis functions of A   symmetry.
 Integral buffers will be    131072 words long.
 Raffenetti 1 integral format.
 Two-electron integral symmetry is turned on.
   492 basis functions,   928 primitive gaussians,   492 cartesian basis functions
   108 alpha electrons      108 beta electrons
       nuclear repulsion energy      2725.2202162121 Hartrees.
 NAtoms=   64 NActive=   64 NUniq=   64 SFac= 7.50D-01 NAtFMM=   80 NAOKFM=F Big=T
 One-electron integrals computed using PRISM.
 NBasis=   492 RedAO= T  NBF=   492
 NBsUse=   492 1.00D-06 NBFU=   492
 Harris functional with IExCor=  205 diagonalized for initial guess.
 ExpMin= 1.61D-01 ExpMax= 5.48D+03 ExpMxC= 8.25D+02 IAcc=1 IRadAn=         1 AccDes= 0.00D+00
 HarFok:  IExCor=  205 AccDes= 0.00D+00 IRadAn=         1 IDoV= 1
 ScaDFX=  1.000000  1.000000  1.000000  1.000000
 FoFCou: FMM=F IPFlag=           0 FMFlag=      100000 FMFlg1=           1
         NFxFlg=           0 DoJE=T BraDBF=F KetDBF=T FulRan=T
         Omega=  0.000000  0.000000  1.000000  0.000000  0.000000 ICntrl=     500 IOpCl=  0
         NMat0=    1 NMatS0=    1 NMatT0=    0 NMatD0=    1 NMtDS0=    0 NMtDT0=    0
         I1Cent=           4 NGrid=           0.
 Petite list used in FoFCou.
 Initial guess orbital symmetries:
       Occupied  (A) (A) (A) (A) (A) (A) (A) (A) (A) (A) (A) (A)
                 (A) (A) (A) (A) (A) (A) (A) (A) (A) (A) (A) (A)
                 (A) (A) (A) (A) (A) (A) (A) (A) (A) (A) (A) (A)
                 (A) (A) (A) (A) (A) (A) (A) (A) (A) (A) (A) (A)
                 (A) (A) (A) (A) (A) (A) (A) (A) (A) (A) (A) (A)
                 (A) (A) (A) (A) (A) (A) (A) (A) (A) (A) (A) (A)
                 (A) (A) (A) (A) (A) (A) (A) (A) (A) (A) (A) (A)
                 (A) (A) (A) (A) (A) (A) (A) (A) (A) (A) (A) (A)
                 (A) (A) (A) (A) (A) (A) (A) (A) (A) (A) (A) (A)
       Virtual   (A) (A) (A) (A) (A) (A) (A) (A) (A) (A) (A) (A)
                 (A) (A) (A) (A) (A) (A) (A) (A) (A) (A) (A) (A)
                 (A) (A) (A) (A) (A) (A) (A) (A) (A) (A) (A) (A)
                 (A) (A) (A) (A) (A) (A) (A) (A) (A) (A) (A) (A)
                 (A) (A) (A) (A) (A) (A) (A) (A) (A) (A) (A) (A)
                 (A) (A) (A) (A) (A) (A) (A) (A) (A) (A) (A) (A)
                 (A) (A) (A) (A) (A) (A) (A) (A) (A) (A) (A) (A)
                 (A) (A) (A) (A) (A) (A) (A) (A) (A) (A) (A) (A)
                 (A) (A) (A) (A) (A) (A) (A) (A) (A) (A) (A) (A)
                 (A) (A) (A) (A) (A) (A) (A) (A) (A) (A) (A) (A)
                 (A) (A) (A) (A) (A) (A) (A) (A) (A) (A) (A) (A)
                 (A) (A) (A) (A) (A) (A) (A) (A) (A) (A) (A) (A)
                 (A) (A) (A) (A) (A) (A) (A) (A) (A) (A) (A) (A)
                 (A) (A) (A) (A) (A) (A) (A) (A) (A) (A) (A) (A)
                 (A) (A) (A) (A) (A) (A) (A) (A) (A) (A) (A) (A)
                 (A) (A) (A) (A) (A) (A) (A) (A) (A) (A) (A) (A)
                 (A) (A) (A) (A) (A) (A) (A) (A) (A) (A) (A) (A)
                 (A) (A) (A) (A) (A) (A) (A) (A) (A) (A) (A) (A)
                 (A) (A) (A) (A) (A) (A) (A) (A) (A) (A) (A) (A)
                 (A) (A) (A) (A) (A) (A) (A) (A) (A) (A) (A) (A)
                 (A) (A) (A) (A) (A) (A) (A) (A) (A) (A) (A) (A)
                 (A) (A) (A) (A) (A) (A) (A) (A) (A) (A) (A) (A)
                 (A) (A) (A) (A) (A) (A) (A) (A) (A) (A) (A) (A)
                 (A) (A) (A) (A) (A) (A) (A) (A) (A) (A) (A) (A)
                 (A) (A) (A) (A) (A) (A) (A) (A) (A) (A) (A) (A)
                 (A) (A) (A) (A) (A) (A) (A) (A) (A) (A) (A) (A)
                 (A) (A) (A) (A) (A) (A) (A) (A) (A) (A) (A) (A)
                 (A) (A) (A) (A) (A) (A) (A) (A) (A) (A) (A) (A)
                 (A) (A) (A) (A) (A) (A) (A) (A) (A) (A) (A) (A)
                 (A) (A) (A) (A) (A) (A) (A) (A) (A) (A) (A) (A)
                 (A) (A) (A) (A) (A) (A) (A) (A) (A) (A) (A) (A)
                 (A) (A) (A) (A) (A) (A) (A) (A) (A) (A) (A) (A)
 The electronic state of the initial guess is 1-A.
 Requested convergence on RMS density matrix=1.00D-08 within 128 cycles.
 Requested convergence on MAX density matrix=1.00D-06.
 Requested convergence on             energy=1.00D-06.
 No special actions if energy rises.
 Integral accuracy reduced to 1.0D-05 until final iterations.
 Initial convergence to 1.0D-05 achieved.  Increase integral accuracy.
 SCF Done:  E(RHF) =  -1295.35398557     A.U. after   14 cycles
             Convg  =    0.8287D-08             -V/T =  1.9999

 **********************************************************************

            Population analysis using the SCF density.

 **********************************************************************

 Orbital symmetries:
       Occupied  (A) (A) (A) (A) (A) (A) (A) (A) (A) (A) (A) (A)
                 (A) (A) (A) (A) (A) (A) (A) (A) (A) (A) (A) (A)
                 (A) (A) (A) (A) (A) (A) (A) (A) (A) (A) (A) (A)
                 (A) (A) (A) (A) (A) (A) (A) (A) (A) (A) (A) (A)
                 (A) (A) (A) (A) (A) (A) (A) (A) (A) (A) (A) (A)
                 (A) (A) (A) (A) (A) (A) (A) (A) (A) (A) (A) (A)
                 (A) (A) (A) (A) (A) (A) (A) (A) (A) (A) (A) (A)
                 (A) (A) (A) (A) (A) (A) (A) (A) (A) (A) (A) (A)
                 (A) (A) (A) (A) (A) (A) (A) (A) (A) (A) (A) (A)
       Virtual   (A) (A) (A) (A) (A) (A) (A) (A) (A) (A) (A) (A)
                 (A) (A) (A) (A) (A) (A) (A) (A) (A) (A) (A) (A)
                 (A) (A) (A) (A) (A) (A) (A) (A) (A) (A) (A) (A)
                 (A) (A) (A) (A) (A) (A) (A) (A) (A) (A) (A) (A)
                 (A) (A) (A) (A) (A) (A) (A) (A) (A) (A) (A) (A)
                 (A) (A) (A) (A) (A) (A) (A) (A) (A) (A) (A) (A)
                 (A) (A) (A) (A) (A) (A) (A) (A) (A) (A) (A) (A)
                 (A) (A) (A) (A) (A) (A) (A) (A) (A) (A) (A) (A)
                 (A) (A) (A) (A) (A) (A) (A) (A) (A) (A) (A) (A)
                 (A) (A) (A) (A) (A) (A) (A) (A) (A) (A) (A) (A)
                 (A) (A) (A) (A) (A) (A) (A) (A) (A) (A) (A) (A)
                 (A) (A) (A) (A) (A) (A) (A) (A) (A) (A) (A) (A)
                 (A) (A) (A) (A) (A) (A) (A) (A) (A) (A) (A) (A)
                 (A) (A) (A) (A) (A) (A) (A) (A) (A) (A) (A) (A)
                 (A) (A) (A) (A) (A) (A) (A) (A) (A) (A) (A) (A)
                 (A) (A) (A) (A) (A) (A) (A) (A) (A) (A) (A) (A)
                 (A) (A) (A) (A) (A) (A) (A) (A) (A) (A) (A) (A)
                 (A) (A) (A) (A) (A) (A) (A) (A) (A) (A) (A) (A)
                 (A) (A) (A) (A) (A) (A) (A) (A) (A) (A) (A) (A)
                 (A) (A) (A) (A) (A) (A) (A) (A) (A) (A) (A) (A)
                 (A) (A) (A) (A) (A) (A) (A) (A) (A) (A) (A) (A)
                 (A) (A) (A) (A) (A) (A) (A) (A) (A) (A) (A) (A)
                 (A) (A) (A) (A) (A) (A) (A) (A) (A) (A) (A) (A)
                 (A) (A) (A) (A) (A) (A) (A) (A) (A) (A) (A) (A)
                 (A) (A) (A) (A) (A) (A) (A) (A) (A) (A) (A) (A)
                 (A) (A) (A) (A) (A) (A) (A) (A) (A) (A) (A) (A)
                 (A) (A) (A) (A) (A) (A) (A) (A) (A) (A) (A) (A)
                 (A) (A) (A) (A) (A) (A) (A) (A) (A) (A) (A) (A)
                 (A) (A) (A) (A) (A) (A) (A) (A) (A) (A) (A) (A)
                 (A) (A) (A) (A) (A) (A) (A) (A) (A) (A) (A) (A)
                 (A) (A) (A) (A) (A) (A) (A) (A) (A) (A) (A) (A)
                 (A) (A) (A) (A) (A) (A) (A) (A) (A) (A) (A) (A)
 The electronic state is 1-A.
 Alpha  occ. eigenvalues --  -20.56922 -20.51625 -20.51053 -20.48452 -15.63498
 Alpha  occ. eigenvalues --  -15.57360 -15.57044 -15.45468 -11.41473 -11.33834
 Alpha  occ. eigenvalues --  -11.33141 -11.30331 -11.29057 -11.28012 -11.27238
 Alpha  occ. eigenvalues --  -11.24460 -11.22728 -11.22718 -11.22585 -11.22154
 Alpha  occ. eigenvalues --  -11.21675 -11.21598 -11.21593 -11.21298 -11.21004
 Alpha  occ. eigenvalues --  -11.20868 -11.20772 -11.20312  -1.55702  -1.38892
 Alpha  occ. eigenvalues --   -1.37603  -1.35546  -1.29213  -1.23059  -1.22075
 Alpha  occ. eigenvalues --   -1.18399  -1.10020  -1.09078  -1.06957  -1.04678
 Alpha  occ. eigenvalues --   -1.02547  -0.99600  -0.98364  -0.94732  -0.94154
 Alpha  occ. eigenvalues --   -0.93906  -0.92443  -0.90536  -0.86582  -0.85159
 Alpha  occ. eigenvalues --   -0.82130  -0.81008  -0.79121  -0.78841  -0.76359
 Alpha  occ. eigenvalues --   -0.73126  -0.71165  -0.70519  -0.70345  -0.67645
 Alpha  occ. eigenvalues --   -0.67182  -0.65723  -0.64744  -0.63737  -0.63202
 Alpha  occ. eigenvalues --   -0.62947  -0.61268  -0.61142  -0.60958  -0.60789
 Alpha  occ. eigenvalues --   -0.60471  -0.60132  -0.58817  -0.58423  -0.58130
 Alpha  occ. eigenvalues --   -0.57542  -0.57317  -0.56805  -0.56118  -0.55823
 Alpha  occ. eigenvalues --   -0.55702  -0.55027  -0.54536  -0.54266  -0.54110
 Alpha  occ. eigenvalues --   -0.52982  -0.52536  -0.51642  -0.51303  -0.50866
 Alpha  occ. eigenvalues --   -0.50330  -0.49413  -0.49243  -0.48341  -0.48023
 Alpha  occ. eigenvalues --   -0.47348  -0.46754  -0.45687  -0.44106  -0.43395
 Alpha  occ. eigenvalues --   -0.40993  -0.40626  -0.38332  -0.38151  -0.37750
 Alpha  occ. eigenvalues --   -0.34439  -0.33341  -0.32080
 Alpha virt. eigenvalues --    0.12679   0.18389   0.19016   0.20144   0.21885
 Alpha virt. eigenvalues --    0.22093   0.22518   0.23498   0.23796   0.24526
 Alpha virt. eigenvalues --    0.25614   0.26204   0.26895   0.27274   0.27929
 Alpha virt. eigenvalues --    0.28243   0.28404   0.28642   0.29456   0.29769
 Alpha virt. eigenvalues --    0.30099   0.30738   0.31294   0.31600   0.32003
 Alpha virt. eigenvalues --    0.32779   0.33061   0.33803   0.34013   0.34347
 Alpha virt. eigenvalues --    0.34717   0.35155   0.35414   0.36023   0.36070
 Alpha virt. eigenvalues --    0.36455   0.37264   0.37771   0.38217   0.38730
 Alpha virt. eigenvalues --    0.39098   0.39292   0.40018   0.40339   0.41011
 Alpha virt. eigenvalues --    0.41568   0.42560   0.43260   0.43651   0.44775
 Alpha virt. eigenvalues --    0.45505   0.46034   0.46384   0.47114   0.48061
 Alpha virt. eigenvalues --    0.48664   0.49359   0.49667   0.52755   0.54675
 Alpha virt. eigenvalues --    0.55016   0.56930   0.58284   0.60203   0.60802
 Alpha virt. eigenvalues --    0.63019   0.64806   0.65667   0.70134   0.70614
 Alpha virt. eigenvalues --    0.71023   0.71509   0.72035   0.72270   0.73348
 Alpha virt. eigenvalues --    0.73589   0.74482   0.75395   0.76112   0.76767
 Alpha virt. eigenvalues --    0.77078   0.77664   0.78238   0.79156   0.79615
 Alpha virt. eigenvalues --    0.80493   0.81028   0.81384   0.82206   0.83056
 Alpha virt. eigenvalues --    0.84479   0.85562   0.85756   0.86453   0.87079
 Alpha virt. eigenvalues --    0.88454   0.88875   0.89512   0.90088   0.90440
 Alpha virt. eigenvalues --    0.91652   0.92034   0.92867   0.93364   0.94013
 Alpha virt. eigenvalues --    0.94972   0.96048   0.96555   0.97280   0.97638
 Alpha virt. eigenvalues --    0.99265   1.00112   1.00630   1.00854   1.01633
 Alpha virt. eigenvalues --    1.02277   1.03084   1.03802   1.04600   1.04992
 Alpha virt. eigenvalues --    1.05788   1.06380   1.06841   1.07642   1.08062
 Alpha virt. eigenvalues --    1.08837   1.09322   1.10244   1.10688   1.11120
 Alpha virt. eigenvalues --    1.12463   1.13434   1.13718   1.14220   1.14662
 Alpha virt. eigenvalues --    1.14987   1.15040   1.15398   1.15542   1.15930
 Alpha virt. eigenvalues --    1.16781   1.17229   1.17398   1.17650   1.18227
 Alpha virt. eigenvalues --    1.18497   1.18844   1.19412   1.19693   1.20000
 Alpha virt. eigenvalues --    1.20240   1.20726   1.21461   1.21672   1.21985
 Alpha virt. eigenvalues --    1.22338   1.22771   1.23320   1.23410   1.24061
 Alpha virt. eigenvalues --    1.24134   1.24504   1.25613   1.26560   1.26734
 Alpha virt. eigenvalues --    1.27430   1.27960   1.28779   1.29366   1.30140
 Alpha virt. eigenvalues --    1.30687   1.31217   1.31694   1.32745   1.33770
 Alpha virt. eigenvalues --    1.35913   1.36453   1.36811   1.39321   1.39766
 Alpha virt. eigenvalues --    1.40368   1.42004   1.42768   1.43211   1.45212
 Alpha virt. eigenvalues --    1.46625   1.47495   1.48620   1.48864   1.50037
 Alpha virt. eigenvalues --    1.51045   1.51828   1.54664   1.54881   1.55945
 Alpha virt. eigenvalues --    1.58123   1.58818   1.59537   1.61820   1.63219
 Alpha virt. eigenvalues --    1.64367   1.67048   1.68206   1.69869   1.70192
 Alpha virt. eigenvalues --    1.70896   1.72077   1.72887   1.74149   1.74713
 Alpha virt. eigenvalues --    1.75964   1.78350   1.79264   1.80260   1.81112
 Alpha virt. eigenvalues --    1.83625   1.83951   1.85930   1.88630   1.89951
 Alpha virt. eigenvalues --    1.90226   1.91898   1.93160   1.93575   1.95318
 Alpha virt. eigenvalues --    1.95940   1.97298   1.99117   2.00129   2.02250
 Alpha virt. eigenvalues --    2.04982   2.06525   2.07519   2.07661   2.08234
 Alpha virt. eigenvalues --    2.10006   2.10565   2.11684   2.12566   2.12947
 Alpha virt. eigenvalues --    2.13673   2.15090   2.15343   2.16798   2.16942
 Alpha virt. eigenvalues --    2.18486   2.18986   2.19466   2.19773   2.20582
 Alpha virt. eigenvalues --    2.21590   2.22395   2.23574   2.23885   2.25239
 Alpha virt. eigenvalues --    2.26062   2.26738   2.27913   2.28718   2.28986
 Alpha virt. eigenvalues --    2.30047   2.31998   2.32889   2.33404   2.33549
 Alpha virt. eigenvalues --    2.34632   2.35955   2.35968   2.37516   2.37841
 Alpha virt. eigenvalues --    2.38162   2.38376   2.39852   2.39921   2.40580
 Alpha virt. eigenvalues --    2.41988   2.42586   2.43030   2.44709   2.46407
 Alpha virt. eigenvalues --    2.47287   2.48512   2.48635   2.49736   2.51195
 Alpha virt. eigenvalues --    2.51860   2.52955   2.53405   2.55557   2.56635
 Alpha virt. eigenvalues --    2.57721   2.59822   2.60609   2.61068   2.62916
 Alpha virt. eigenvalues --    2.63354   2.63883   2.65035   2.65662   2.66798
 Alpha virt. eigenvalues --    2.68734   2.69291   2.69596   2.70749   2.72394
 Alpha virt. eigenvalues --    2.74009   2.74301   2.75512   2.76572   2.77629
 Alpha virt. eigenvalues --    2.78436   2.79121   2.80138   2.81797   2.82773
 Alpha virt. eigenvalues --    2.83906   2.84616   2.86289   2.86885   2.88679
 Alpha virt. eigenvalues --    2.90524   2.92241   2.92878   2.94538   2.96373
 Alpha virt. eigenvalues --    2.97831   2.99080   3.00291   3.01457   3.04067
 Alpha virt. eigenvalues --    3.05991   3.06246   3.07514   3.08788   3.10931
 Alpha virt. eigenvalues --    3.11669   3.13485   3.13706   3.16347   3.18475
 Alpha virt. eigenvalues --    3.19175   3.22642   3.23200   3.30483   3.31118
 Alpha virt. eigenvalues --    3.34413   3.34899   3.41004   3.42364   3.43213
 Alpha virt. eigenvalues --    3.44770   3.56195   3.56233   3.58075   3.58318
 Alpha virt. eigenvalues --    3.94553   4.38964   4.41659   4.48938   4.49675
 Alpha virt. eigenvalues --    4.52348   4.56113   4.58279   4.59380   4.62759
 Alpha virt. eigenvalues --    4.65500   4.67566   4.68374   4.70545   4.71748
 Alpha virt. eigenvalues --    4.73601   4.78709   4.83920   4.84777   4.85917
 Alpha virt. eigenvalues --    4.90000   4.94348   4.96021   5.00097   5.02678
 Alpha virt. eigenvalues --    5.05938   5.09998   5.24119   5.26927
          Condensed to atoms (all electrons):
 Mulliken atomic charges:
              1
     1  C   -0.261762
     2  N   -0.878613
     3  C    0.771653
     4  O   -0.659961
     5  C    0.071811
     6  C   -0.490014
     7  C   -0.283804
     8  C   -0.316639
     9  C   -0.373033
    10  C   -0.180736
    11  C   -0.181979
    12  C   -0.351155
    13  C   -0.309833
    14  C   -0.328804
    15  C    0.090713
    16  C   -0.509626
    17  N   -0.787683
    18  C    0.767455
    19  C   -0.595531
    20  O   -0.614491
    21  C    0.821023
    22  O   -0.639999
    23  N   -0.805138
    24  C   -0.275342
    25  N   -0.799075
    26  C    0.760464
    27  C   -0.587806
    28  O   -0.481150
    29  H    0.137621
    30  H    0.172317
    31  H    0.141137
    32  H    0.412833
    33  H    0.230339
    34  H    0.153000
    35  H    0.174950
    36  H    0.155465
    37  H    0.192009
    38  H    0.160797
    39  H    0.167484
    40  H    0.223276
    41  H    0.168215
    42  H    0.195665
    43  H    0.167420
    44  H    0.175300
    45  H    0.156927
    46  H    0.147937
    47  H    0.199849
    48  H    0.171977
    49  H    0.187200
    50  H    0.182700
    51  H    0.149292
    52  H    0.225257
    53  H    0.389881
    54  H    0.210090
    55  H    0.209211
    56  H    0.175944
    57  H    0.394987
    58  H    0.164916
    59  H    0.200745
    60  H    0.183191
    61  H    0.403061
    62  H    0.228489
    63  H    0.201552
    64  H    0.218021
 Sum of Mulliken atomic charges =   0.00000
 Mulliken charges with hydrogens summed into heavy atoms:
              1
     1  C    0.189313
     2  N   -0.878613
     3  C    0.771653
     4  O   -0.659961
     5  C    0.071811
     6  C    0.068276
     7  C    0.063669
     8  C    0.011643
     9  C    0.018458
    10  C    0.014928
    11  C   -0.014559
    12  C   -0.018927
    13  C    0.037954
    14  C    0.030373
    15  C    0.090713
    16  C    0.047623
    17  N   -0.397802
    18  C    0.767455
    19  C   -0.000286
    20  O   -0.614491
    21  C    0.821023
    22  O   -0.639999
    23  N   -0.410150
    24  C    0.273511
    25  N   -0.396015
    26  C    0.760464
    27  C    0.060256
    28  O   -0.068317
 Sum of Mulliken charges with hydrogens summed into heavy atoms =   0.00000
 Electronic spatial extent (au):  <R**2>=          20800.6348
 Charge=              0.0000 electrons
 Dipole moment (field-independent basis, Debye):
    X=             -8.4294    Y=             -3.8500    Z=              5.2524  Tot=             10.6520
 Quadrupole moment (field-independent basis, Debye-Ang):
   XX=           -134.5695   YY=           -159.3022   ZZ=           -179.7355
   XY=              6.5403   XZ=            -10.8728   YZ=              7.7305
 Traceless Quadrupole moment (field-independent basis, Debye-Ang):
   XX=             23.2996   YY=             -1.4332   ZZ=            -21.8664
   XY=              6.5403   XZ=            -10.8728   YZ=              7.7305
 Octapole moment (field-independent basis, Debye-Ang**2):
  XXX=           -804.4709  YYY=             37.9159  ZZZ=             28.6282  XYY=             70.0062
  XXY=           -148.4155  XXZ=            131.5174  XZZ=              3.3461  YZZ=             -4.8935
  YYZ=             -4.5113  XYZ=            -12.1036
 Hexadecapole moment (field-independent basis, Debye-Ang**3):
 XXXX=         -21029.8346 YYYY=          -2334.3677 ZZZZ=          -1631.2421 XXXY=           -377.6132
 XXXZ=           -798.6401 YYYX=             99.0093 YYYZ=             -5.7958 ZZZX=           -138.8800
 ZZZY=             29.2668 XXYY=          -3924.3631 XXZZ=          -4165.9858 YYZZ=           -671.0971
 XXYZ=            173.2815 YYXZ=            -50.1001 ZZXY=             67.0023
 N-N= 2.725220216212D+03 E-N=-8.484033599121D+03  KE= 1.295492568051D+03
 1\1\GINC-MOSURA\SP\RHF\6-31G(d)\C20H36N4O4\MARIE\05-Dec-2019\0\\#SP HF
 /6-31G* Geom=(ModRedundant)\\paramfit run\\0,1\C,0,0.,0.,0.\N,0,1.4481
 87,0.,0.\C,0,2.1232,0.47592,1.072365\O,0,1.590179,0.696732,2.124447\C,
 0,3.650505,0.594143,0.921539\C,0,4.198902,1.549248,1.986845\C,0,4.3077
 51,-0.809116,1.023981\C,0,4.133566,-1.622781,2.319066\C,0,2.832729,-2.
 433298,2.484965\C,0,2.579342,-3.423586,1.372579\C,0,2.834093,-4.721989
 ,1.375535\C,0,3.442731,-5.535663,2.492337\C,0,2.42774,-6.370218,3.2941
 33\C,0,1.693892,-7.402618,2.427801\C,0,0.774274,-8.428536,3.139447\C,0
 ,0.118887,-9.296969,2.053288\N,0,1.59533,-9.267679,4.001559\C,0,1.0367
 79,-10.167772,4.862321\C,0,1.96438,-10.678762,5.940862\O,0,-0.103289,-
 10.530888,4.775526\C,0,-0.228361,-7.657085,4.027316\O,0,0.090004,-7.29
 6707,5.128542\N,0,-1.416619,-7.323616,3.478843\C,0,-2.421442,-6.64525,
 4.271531\N,0,3.997412,1.070275,-0.425452\C,0,3.245531,0.817069,-1.5346
 1\C,0,3.567737,1.676285,-2.739621\O,0,2.399022,-0.030758,-1.56205\H,0,
 -0.403259,1.006147,0.\H,0,-0.36496,-0.516002,0.875939\H,0,-0.345658,-0
 .522086,-0.883346\H,0,1.904244,0.070913,-0.879357\H,0,3.932135,1.22176
 ,2.980082\H,0,5.28092,1.595925,1.9075\H,0,3.792711,2.540594,1.848395\H
 ,0,5.374584,-0.64325,0.891407\H,0,3.984642,-1.403324,0.174983\H,0,4.96
 1565,-2.324757,2.354635\H,0,4.250121,-0.975721,3.182259\H,0,1.985724,-
 1.764045,2.562723\H,0,2.895638,-2.94811,3.437249\H,0,2.135502,-3.00918
 1,0.481856\H,0,2.579482,-5.276386,0.485828\H,0,3.971519,-4.889909,3.18
 2881\H,0,4.191817,-6.202016,2.066382\H,0,2.965623,-6.85691,4.102952\H,
 0,1.714584,-5.707921,3.766998\H,0,2.42081,-7.979938,1.860503\H,0,1.083
 167,-6.875737,1.704087\H,0,0.891187,-9.872528,1.556434\H,0,-0.36551,-8
 .684705,1.299714\H,0,-0.597925,-9.98679,2.472891\H,0,2.435807,-8.84784
 ,4.327205\H,0,1.585188,-11.616367,6.31792\H,0,1.981002,-9.957975,6.752
 844\H,0,2.97817,-10.810647,5.57862\H,0,-1.730263,-7.831365,2.685667\H,
 0,-3.24021,-6.362494,3.623002\H,0,-1.998054,-5.755067,4.713054\H,0,-2.
 799425,-7.276973,5.068907\H,0,4.576797,1.879437,-0.45888\H,0,3.229914,
 1.168221,-3.631092\H,0,4.627683,1.889837,-2.819989\H,0,3.0368,2.619189
 ,-2.656927\\Version=EM64L-G09RevA.02\State=1-A\HF=-1295.3539856\RMSD=8
 .287e-09\Dipole=2.4830639,1.8106221,-2.8494121\Quadrupole=1.0882749,2.
 2575477,-3.3458226,11.0997183,1.026861,-16.4857144\PG=C01 [X(C20H36N4O
 4)]\\@


 ON A CLEAR DISK YOU CAN SEEK FOREVER.
 Job cpu time:  0 days  0 hours  5 minutes 29.3 seconds.
 File lengths (MBytes):  RWF=    132 Int=      0 D2E=      0 Chk=     10 Scr=      1
 Normal termination of Gaussian 09 at Thu Dec  5 16:16:26 2019.
