 Entering Gaussian System, Link 0=g09
 Input=PHI_30.gau
 Output=PHI_30.log
 Initial command:
 /home/marie/Utilities//g09/l1.exe /tmp/g09/Gau-5266.inp -scrdir=/tmp/g09/
 Entering Link 1 = /home/marie/Utilities//g09/l1.exe PID=      5268.
  
 Copyright (c) 1988,1990,1992,1993,1995,1998,2003,2009, Gaussian, Inc.
                  All Rights Reserved.
  
 This is part of the Gaussian(R) 09 program.  It is based on
 the Gaussian(R) 03 system (copyright 2003, Gaussian, Inc.),
 the Gaussian(R) 98 system (copyright 1998, Gaussian, Inc.),
 the Gaussian(R) 94 system (copyright 1995, Gaussian, Inc.),
 the Gaussian 92(TM) system (copyright 1992, Gaussian, Inc.),
 the Gaussian 90(TM) system (copyright 1990, Gaussian, Inc.),
 the Gaussian 88(TM) system (copyright 1988, Gaussian, Inc.),
 the Gaussian 86(TM) system (copyright 1986, Carnegie Mellon
 University), and the Gaussian 82(TM) system (copyright 1983,
 Carnegie Mellon University). Gaussian is a federally registered
 trademark of Gaussian, Inc.
  
 This software contains proprietary and confidential information,
 including trade secrets, belonging to Gaussian, Inc.
  
 This software is provided under written license and may be
 used, copied, transmitted, or stored only in accord with that
 written license.
  
 The following legend is applicable only to US Government
 contracts under FAR:
  
                    RESTRICTED RIGHTS LEGEND
  
 Use, reproduction and disclosure by the US Government is
 subject to restrictions as set forth in subparagraphs (a)
 and (c) of the Commercial Computer Software - Restricted
 Rights clause in FAR 52.227-19.
  
 Gaussian, Inc.
 340 Quinnipiac St., Bldg. 40, Wallingford CT 06492
  
  
 ---------------------------------------------------------------
 Warning -- This program may not be used in any manner that
 competes with the business of Gaussian, Inc. or will provide
 assistance to any competitor of Gaussian, Inc.  The licensee
 of this program is prohibited from giving any competitor of
 Gaussian, Inc. access to this program.  By using this program,
 the user acknowledges that Gaussian, Inc. is engaged in the
 business of creating and licensing software in the field of
 computational chemistry and represents and warrants to the
 licensee that it is not a competitor of Gaussian, Inc. and that
 it will not use this program in any manner prohibited above.
 ---------------------------------------------------------------
  

 Cite this work as:
 Gaussian 09, Revision A.02,
 M. J. Frisch, G. W. Trucks, H. B. Schlegel, G. E. Scuseria, 
 M. A. Robb, J. R. Cheeseman, G. Scalmani, V. Barone, B. Mennucci, 
 G. A. Petersson, H. Nakatsuji, M. Caricato, X. Li, H. P. Hratchian, 
 A. F. Izmaylov, J. Bloino, G. Zheng, J. L. Sonnenberg, M. Hada, 
 M. Ehara, K. Toyota, R. Fukuda, J. Hasegawa, M. Ishida, T. Nakajima, 
 Y. Honda, O. Kitao, H. Nakai, T. Vreven, J. A. Montgomery, Jr., 
 J. E. Peralta, F. Ogliaro, M. Bearpark, J. J. Heyd, E. Brothers, 
 K. N. Kudin, V. N. Staroverov, R. Kobayashi, J. Normand, 
 K. Raghavachari, A. Rendell, J. C. Burant, S. S. Iyengar, J. Tomasi, 
 M. Cossi, N. Rega, J. M. Millam, M. Klene, J. E. Knox, J. B. Cross, 
 V. Bakken, C. Adamo, J. Jaramillo, R. Gomperts, R. E. Stratmann, 
 O. Yazyev, A. J. Austin, R. Cammi, C. Pomelli, J. W. Ochterski, 
 R. L. Martin, K. Morokuma, V. G. Zakrzewski, G. A. Voth, 
 P. Salvador, J. J. Dannenberg, S. Dapprich, A. D. Daniels, 
 O. Farkas, J. B. Foresman, J. V. Ortiz, J. Cioslowski, 
 and D. J. Fox, Gaussian, Inc., Wallingford CT, 2009.
 
 ******************************************
 Gaussian 09:  EM64L-G09RevA.02 11-Jun-2009
                 5-Dec-2019 
 ******************************************
 %chk=PHI_30
 %NoSave
 ---------------------------------
 #SP HF/6-31G* Geom=(ModRedundant)
 ---------------------------------
 1/18=120,38=1/1;
 2/12=2,17=6,18=5,40=1/2;
 3/5=1,6=6,7=1,11=9,16=1,25=1,30=1/1,2,3;
 4//1;
 5/5=2,38=5/2;
 6/7=2,8=2,9=2,10=2,28=1/1;
 99/5=1,9=1/99;
 ------------
 paramfit run
 ------------
 Symbolic Z-matrix:
 Charge =  0 Multiplicity = 1
 C-CT--0.3208          0.        0.        0. 
 N-N--0.5622           1.44819   0.        0. 
 C-C-0.8053            2.1232    0.47592   1.07237 
 O-O--0.6151           1.59018   0.69673   2.12445 
 C-CX-0.0839           3.65051   0.59414   0.92154 
 C-CU--0.3230          4.1989    1.54925   1.98685 
 C-CU--0.0657          4.30775  -0.80912   1.02398 
 C-CU--0.0109          4.13357  -1.62278   2.31907 
 C-CU-0.0816           2.83273  -2.4333    2.48497 
 C-CM--0.2354          2.57934  -3.42359   1.37258 
 C-CM--0.2653          2.83409  -4.72199   1.37554 
 C-CU-0.1214           3.44273  -5.53566   2.49234 
 C-CU--0.0354          2.42774  -6.37022   3.29413 
 C-CU--0.0984          1.69389  -7.40262   2.4278 
 C-CU-0.1300           0.77427  -8.42854   3.13945 
 C-CU--0.3561          0.11889  -9.29697   2.05329 
 N-N--0.7186           1.59533  -9.26768   4.00156 
 C-C-0.8537            1.03678  -10.16777   4.86232 
 C-CT--0.3868          1.96438  -10.67876   5.94086 
 O-O--0.6323          -0.10329  -10.53089   4.77553 
 C-C-0.7903           -0.22836  -7.65709   4.02732 
 O-O--0.6136           0.09     -7.29671   5.12854 
 N-N--0.5650          -1.41662  -7.32362   3.47884 
 C-CT--0.3231         -2.42144  -6.64525   4.27153 
 N-N--0.7191           3.99741   1.07028  -0.42545 
 C-C-0.8539            3.19876   1.88946  -1.16759 
 C-CT--0.3903          3.87571   2.5458   -2.35295 
 O-O--0.6290           2.0421    2.07009  -0.91137 
 H-H1-0.1459          -0.40326   1.00615   0. 
 H-H1-0.1459          -0.36496  -0.516     0.87594 
 H-H1-0.1459          -0.34566  -0.52209  -0.88335 
 H-H-0.3572            1.90424   0.07091  -0.87936 
 H-HC-0.0997           3.93214   1.22176   2.98008 
 H-HC-0.0997           5.28092   1.59593   1.9075 
 H-HC-0.0997           3.79271   2.54059   1.8484 
 H-HC-0.0347           5.37458  -0.64325   0.89141 
 H-HC-0.0347           3.98464  -1.40332   0.17498 
 H-HC-0.0243           4.96157  -2.32476   2.35464 
 H-HC-0.0243           4.25012  -0.97572   3.18226 
 H-HC-0.0171           1.98572  -1.76405   2.56272 
 H-HC-0.0171           2.89564  -2.94811   3.43725 
 H-HA-0.1313           2.1355   -3.00918   0.48186 
 H-HA-0.1359           2.57948  -5.27639   0.48583 
 H-HC-0.0092           3.97152  -4.88991   3.18288 
 H-HC-0.0092           4.19182  -6.20202   2.06638 
 H-HC-0.0318           2.96562  -6.85691   4.10295 
 H-HC-0.0318           1.71458  -5.70792   3.767 
 H-HC-0.0435           2.42081  -7.97994   1.8605 
 H-HC-0.0435           1.08317  -6.87574   1.70409 
 H-HC-0.1066           0.89119  -9.87253   1.55643 
 H-HC-0.1066          -0.36551  -8.68471   1.29971 
 H-HC-0.1066          -0.59793  -9.98679   2.47289 
 H-H-0.3529            2.43581  -8.84784   4.32721 
 H-HC-0.1047           1.58519  -11.61637   6.31792 
 H-HC-0.1047           1.981    -9.95798   6.75284 
 H-HC-0.1047           2.97817  -10.81065   5.57862 
 H-H-0.3615           -1.73026  -7.83136   2.68567 
 H-H1-0.1469          -3.24021  -6.36249   3.623 
 H-H1-0.1469          -1.99805  -5.75507   4.71305 
 H-H1-0.1469          -2.79943  -7.27697   5.06891 
 H-H-0.3570            4.97043   1.0915   -0.63602 
 H-HC-0.1060           3.12118   2.8347   -3.07003 
 H-HC-0.1060           4.59894   1.8916   -2.82677 
 H-HC-0.1060           4.3939    3.43853  -2.0178 
 
 The following ModRedundant input section has been read:
 D    *    5   25    * F                                                       
 Stoichiometry    C20H36N4O4
 Framework group  C1[X(C20H36N4O4)]
 Deg. of freedom   186
 Full point group                 C1      NOp   1
 Largest Abelian subgroup         C1      NOp   1
 Largest concise Abelian subgroup C1      NOp   1
                         Standard orientation:                         
 ---------------------------------------------------------------------
 Center     Atomic      Atomic             Coordinates (Angstroms)
 Number     Number       Type             X           Y           Z
 ---------------------------------------------------------------------
      1          6    20001001       -3.863937    2.815029    0.301610
      2          7    20001014       -4.192074    1.407160    0.388078
      3          6    20001002       -4.371301    0.685139   -0.742707
      4          8    20001024       -4.055032    1.093186   -1.825858
      5          6    90000001       -4.880147   -0.756099   -0.560242
      6          6    90000002       -5.464167   -1.265271   -1.882175
      7          6    90000002       -3.729023   -1.669634   -0.058277
      8          6    90000002       -2.472946   -1.836900   -0.932308
      9          6    90000002       -1.387322   -0.746201   -0.840480
     10          6    20001004       -0.856147   -0.523583    0.556149
     11          6    20001004        0.254640   -1.012128    1.083626
     12          6    90000002        1.266578   -1.914832    0.419654
     13          6    90000002        2.547204   -1.197757   -0.044422
     14          6    90000002        3.317261   -0.551175    1.114827
     15          6    90000002        4.714569    0.050684    0.814924
     16          6    90000002        5.237093    0.682913    2.115195
     17          7    20001014        5.605888   -1.026680    0.407042
     18          6    20001002        6.864101   -0.773939   -0.057802
     19          6    20001001        7.517292   -1.925177   -0.787733
     20          8    20001024        7.416397    0.279600    0.097654
     21          6    20001002        4.580660    1.040821   -0.364237
     22          8    20001024        4.596938    0.639978   -1.496927
     23          7    20001014        4.344662    2.336490   -0.065024
     24          6    20001001        4.259295    3.325179   -1.120207
     25          7    20001014       -5.891322   -0.811806    0.505522
     26          6    20001002       -6.724844    0.222854    0.812752
     27          6    20001001       -7.912293   -0.143527    1.678691
     28          8    20001024       -6.529208    1.343985    0.437343
     29          1    20001035       -4.677198    3.393398   -0.121528
     30          1    20001035       -2.989243    2.948523   -0.317918
     31          1    20001035       -3.647037    3.181180    1.297221
     32          1    20001029       -4.688506    1.103166    1.192707
     33          1    20001034       -4.737286   -1.209163   -2.678057
     34          1    20001034       -5.781020   -2.297131   -1.763400
     35          1    20001034       -6.315309   -0.666918   -2.172791
     36          1    20001034       -4.169534   -2.657017    0.061078
     37          1    20001034       -3.439523   -1.343692    0.935821
     38          1    20001034       -2.016086   -2.776959   -0.637034
     39          1    20001034       -2.757848   -1.954289   -1.972705
     40          1    20001034       -1.768012    0.190005   -1.227722
     41          1    20001034       -0.582055   -1.039403   -1.504867
     42          1    20001033       -1.461769    0.112513    1.181223
     43          1    20001033        0.477579   -0.739560    2.103316
     44          1    20001034        0.824785   -2.408435   -0.437458
     45          1    20001034        1.536440   -2.705324    1.118861
     46          1    20001034        3.165836   -1.926907   -0.560183
     47          1    20001034        2.290417   -0.449680   -0.782847
     48          1    20001034        3.459159   -1.283337    1.906874
     49          1    20001034        2.710873    0.244016    1.532339
     50          1    20001034        5.393508   -0.103155    2.844724
     51          1    20001034        4.514130    1.375391    2.533739
     52          1    20001034        6.176885    1.191779    1.961621
     53          1    20001029        5.159930   -1.812751   -0.007596
     54          1    20001034        8.587435   -1.784312   -0.783899
     55          1    20001034        7.169566   -1.924409   -1.816427
     56          1    20001034        7.270494   -2.883167   -0.343066
     57          1    20001029        4.575188    2.661230    0.844213
     58          1    20001035        3.947699    4.266616   -0.687163
     59          1    20001035        3.528352    3.015057   -1.852445
     60          1    20001035        5.211561    3.461180   -1.622647
     61          1    20001029       -6.209739   -1.723572    0.748092
     62          1    20001034       -8.269640    0.746434    2.175930
     63          1    20001034       -7.665424   -0.899763    2.415380
     64          1    20001034       -8.706840   -0.530070    1.048547
 ---------------------------------------------------------------------
 Rotational constants (GHZ):      0.4047632      0.0503437      0.0483680
 Standard basis: 6-31G(d) (6D, 7F)
 There are   492 symmetry adapted basis functions of A   symmetry.
 Integral buffers will be    131072 words long.
 Raffenetti 1 integral format.
 Two-electron integral symmetry is turned on.
   492 basis functions,   928 primitive gaussians,   492 cartesian basis functions
   108 alpha electrons      108 beta electrons
       nuclear repulsion energy      2698.9413980556 Hartrees.
 NAtoms=   64 NActive=   64 NUniq=   64 SFac= 7.50D-01 NAtFMM=   80 NAOKFM=F Big=T
 One-electron integrals computed using PRISM.
 NBasis=   492 RedAO= T  NBF=   492
 NBsUse=   492 1.00D-06 NBFU=   492
 Harris functional with IExCor=  205 diagonalized for initial guess.
 ExpMin= 1.61D-01 ExpMax= 5.48D+03 ExpMxC= 8.25D+02 IAcc=1 IRadAn=         1 AccDes= 0.00D+00
 HarFok:  IExCor=  205 AccDes= 0.00D+00 IRadAn=         1 IDoV= 1
 ScaDFX=  1.000000  1.000000  1.000000  1.000000
 FoFCou: FMM=F IPFlag=           0 FMFlag=      100000 FMFlg1=           1
         NFxFlg=           0 DoJE=T BraDBF=F KetDBF=T FulRan=T
         Omega=  0.000000  0.000000  1.000000  0.000000  0.000000 ICntrl=     500 IOpCl=  0
         NMat0=    1 NMatS0=    1 NMatT0=    0 NMatD0=    1 NMtDS0=    0 NMtDT0=    0
         I1Cent=           4 NGrid=           0.
 Petite list used in FoFCou.
 Initial guess orbital symmetries:
       Occupied  (A) (A) (A) (A) (A) (A) (A) (A) (A) (A) (A) (A)
                 (A) (A) (A) (A) (A) (A) (A) (A) (A) (A) (A) (A)
                 (A) (A) (A) (A) (A) (A) (A) (A) (A) (A) (A) (A)
                 (A) (A) (A) (A) (A) (A) (A) (A) (A) (A) (A) (A)
                 (A) (A) (A) (A) (A) (A) (A) (A) (A) (A) (A) (A)
                 (A) (A) (A) (A) (A) (A) (A) (A) (A) (A) (A) (A)
                 (A) (A) (A) (A) (A) (A) (A) (A) (A) (A) (A) (A)
                 (A) (A) (A) (A) (A) (A) (A) (A) (A) (A) (A) (A)
                 (A) (A) (A) (A) (A) (A) (A) (A) (A) (A) (A) (A)
       Virtual   (A) (A) (A) (A) (A) (A) (A) (A) (A) (A) (A) (A)
                 (A) (A) (A) (A) (A) (A) (A) (A) (A) (A) (A) (A)
                 (A) (A) (A) (A) (A) (A) (A) (A) (A) (A) (A) (A)
                 (A) (A) (A) (A) (A) (A) (A) (A) (A) (A) (A) (A)
                 (A) (A) (A) (A) (A) (A) (A) (A) (A) (A) (A) (A)
                 (A) (A) (A) (A) (A) (A) (A) (A) (A) (A) (A) (A)
                 (A) (A) (A) (A) (A) (A) (A) (A) (A) (A) (A) (A)
                 (A) (A) (A) (A) (A) (A) (A) (A) (A) (A) (A) (A)
                 (A) (A) (A) (A) (A) (A) (A) (A) (A) (A) (A) (A)
                 (A) (A) (A) (A) (A) (A) (A) (A) (A) (A) (A) (A)
                 (A) (A) (A) (A) (A) (A) (A) (A) (A) (A) (A) (A)
                 (A) (A) (A) (A) (A) (A) (A) (A) (A) (A) (A) (A)
                 (A) (A) (A) (A) (A) (A) (A) (A) (A) (A) (A) (A)
                 (A) (A) (A) (A) (A) (A) (A) (A) (A) (A) (A) (A)
                 (A) (A) (A) (A) (A) (A) (A) (A) (A) (A) (A) (A)
                 (A) (A) (A) (A) (A) (A) (A) (A) (A) (A) (A) (A)
                 (A) (A) (A) (A) (A) (A) (A) (A) (A) (A) (A) (A)
                 (A) (A) (A) (A) (A) (A) (A) (A) (A) (A) (A) (A)
                 (A) (A) (A) (A) (A) (A) (A) (A) (A) (A) (A) (A)
                 (A) (A) (A) (A) (A) (A) (A) (A) (A) (A) (A) (A)
                 (A) (A) (A) (A) (A) (A) (A) (A) (A) (A) (A) (A)
                 (A) (A) (A) (A) (A) (A) (A) (A) (A) (A) (A) (A)
                 (A) (A) (A) (A) (A) (A) (A) (A) (A) (A) (A) (A)
                 (A) (A) (A) (A) (A) (A) (A) (A) (A) (A) (A) (A)
                 (A) (A) (A) (A) (A) (A) (A) (A) (A) (A) (A) (A)
                 (A) (A) (A) (A) (A) (A) (A) (A) (A) (A) (A) (A)
                 (A) (A) (A) (A) (A) (A) (A) (A) (A) (A) (A) (A)
                 (A) (A) (A) (A) (A) (A) (A) (A) (A) (A) (A) (A)
                 (A) (A) (A) (A) (A) (A) (A) (A) (A) (A) (A) (A)
                 (A) (A) (A) (A) (A) (A) (A) (A) (A) (A) (A) (A)
                 (A) (A) (A) (A) (A) (A) (A) (A) (A) (A) (A) (A)
                 (A) (A) (A) (A) (A) (A) (A) (A) (A) (A) (A) (A)
 The electronic state of the initial guess is 1-A.
 Requested convergence on RMS density matrix=1.00D-08 within 128 cycles.
 Requested convergence on MAX density matrix=1.00D-06.
 Requested convergence on             energy=1.00D-06.
 No special actions if energy rises.
 Integral accuracy reduced to 1.0D-05 until final iterations.
 Initial convergence to 1.0D-05 achieved.  Increase integral accuracy.
 SCF Done:  E(RHF) =  -1295.59652584     A.U. after   14 cycles
             Convg  =    0.5466D-08             -V/T =  2.0011

 **********************************************************************

            Population analysis using the SCF density.

 **********************************************************************

 Orbital symmetries:
       Occupied  (A) (A) (A) (A) (A) (A) (A) (A) (A) (A) (A) (A)
                 (A) (A) (A) (A) (A) (A) (A) (A) (A) (A) (A) (A)
                 (A) (A) (A) (A) (A) (A) (A) (A) (A) (A) (A) (A)
                 (A) (A) (A) (A) (A) (A) (A) (A) (A) (A) (A) (A)
                 (A) (A) (A) (A) (A) (A) (A) (A) (A) (A) (A) (A)
                 (A) (A) (A) (A) (A) (A) (A) (A) (A) (A) (A) (A)
                 (A) (A) (A) (A) (A) (A) (A) (A) (A) (A) (A) (A)
                 (A) (A) (A) (A) (A) (A) (A) (A) (A) (A) (A) (A)
                 (A) (A) (A) (A) (A) (A) (A) (A) (A) (A) (A) (A)
       Virtual   (A) (A) (A) (A) (A) (A) (A) (A) (A) (A) (A) (A)
                 (A) (A) (A) (A) (A) (A) (A) (A) (A) (A) (A) (A)
                 (A) (A) (A) (A) (A) (A) (A) (A) (A) (A) (A) (A)
                 (A) (A) (A) (A) (A) (A) (A) (A) (A) (A) (A) (A)
                 (A) (A) (A) (A) (A) (A) (A) (A) (A) (A) (A) (A)
                 (A) (A) (A) (A) (A) (A) (A) (A) (A) (A) (A) (A)
                 (A) (A) (A) (A) (A) (A) (A) (A) (A) (A) (A) (A)
                 (A) (A) (A) (A) (A) (A) (A) (A) (A) (A) (A) (A)
                 (A) (A) (A) (A) (A) (A) (A) (A) (A) (A) (A) (A)
                 (A) (A) (A) (A) (A) (A) (A) (A) (A) (A) (A) (A)
                 (A) (A) (A) (A) (A) (A) (A) (A) (A) (A) (A) (A)
                 (A) (A) (A) (A) (A) (A) (A) (A) (A) (A) (A) (A)
                 (A) (A) (A) (A) (A) (A) (A) (A) (A) (A) (A) (A)
                 (A) (A) (A) (A) (A) (A) (A) (A) (A) (A) (A) (A)
                 (A) (A) (A) (A) (A) (A) (A) (A) (A) (A) (A) (A)
                 (A) (A) (A) (A) (A) (A) (A) (A) (A) (A) (A) (A)
                 (A) (A) (A) (A) (A) (A) (A) (A) (A) (A) (A) (A)
                 (A) (A) (A) (A) (A) (A) (A) (A) (A) (A) (A) (A)
                 (A) (A) (A) (A) (A) (A) (A) (A) (A) (A) (A) (A)
                 (A) (A) (A) (A) (A) (A) (A) (A) (A) (A) (A) (A)
                 (A) (A) (A) (A) (A) (A) (A) (A) (A) (A) (A) (A)
                 (A) (A) (A) (A) (A) (A) (A) (A) (A) (A) (A) (A)
                 (A) (A) (A) (A) (A) (A) (A) (A) (A) (A) (A) (A)
                 (A) (A) (A) (A) (A) (A) (A) (A) (A) (A) (A) (A)
                 (A) (A) (A) (A) (A) (A) (A) (A) (A) (A) (A) (A)
                 (A) (A) (A) (A) (A) (A) (A) (A) (A) (A) (A) (A)
                 (A) (A) (A) (A) (A) (A) (A) (A) (A) (A) (A) (A)
                 (A) (A) (A) (A) (A) (A) (A) (A) (A) (A) (A) (A)
                 (A) (A) (A) (A) (A) (A) (A) (A) (A) (A) (A) (A)
                 (A) (A) (A) (A) (A) (A) (A) (A) (A) (A) (A) (A)
                 (A) (A) (A) (A) (A) (A) (A) (A) (A) (A) (A) (A)
                 (A) (A) (A) (A) (A) (A) (A) (A) (A) (A) (A) (A)
 The electronic state is 1-A.
 Alpha  occ. eigenvalues --  -20.53690 -20.51925 -20.51511 -20.51432 -15.60019
 Alpha  occ. eigenvalues --  -15.57738 -15.57384 -15.55610 -11.36473 -11.34133
 Alpha  occ. eigenvalues --  -11.33519 -11.33516 -11.29104 -11.28405 -11.24822
 Alpha  occ. eigenvalues --  -11.24596 -11.23764 -11.23505 -11.23205 -11.22413
 Alpha  occ. eigenvalues --  -11.22351 -11.22306 -11.22139 -11.21886 -11.21738
 Alpha  occ. eigenvalues --  -11.21676 -11.21656 -11.21268  -1.41762  -1.39227
 Alpha  occ. eigenvalues --   -1.38223  -1.37947  -1.25559  -1.23407  -1.22451
 Alpha  occ. eigenvalues --   -1.21112  -1.10510  -1.09135  -1.07069  -1.04128
 Alpha  occ. eigenvalues --   -1.01223  -0.99442  -0.98644  -0.95051  -0.94745
 Alpha  occ. eigenvalues --   -0.94353  -0.91920  -0.87059  -0.85524  -0.82695
 Alpha  occ. eigenvalues --   -0.81515  -0.79392  -0.79064  -0.76722  -0.76615
 Alpha  occ. eigenvalues --   -0.71727  -0.71101  -0.70606  -0.69838  -0.67856
 Alpha  occ. eigenvalues --   -0.66424  -0.65223  -0.64554  -0.64174  -0.63550
 Alpha  occ. eigenvalues --   -0.62422  -0.61937  -0.61614  -0.61289  -0.60938
 Alpha  occ. eigenvalues --   -0.60859  -0.59416  -0.58892  -0.58744  -0.58522
 Alpha  occ. eigenvalues --   -0.58203  -0.57770  -0.56970  -0.56307  -0.56103
 Alpha  occ. eigenvalues --   -0.55391  -0.54710  -0.54595  -0.54195  -0.53547
 Alpha  occ. eigenvalues --   -0.52929  -0.52611  -0.52309  -0.51995  -0.51564
 Alpha  occ. eigenvalues --   -0.51351  -0.50146  -0.49643  -0.48897  -0.48407
 Alpha  occ. eigenvalues --   -0.48062  -0.46964  -0.46193  -0.44252  -0.43809
 Alpha  occ. eigenvalues --   -0.41354  -0.40936  -0.40646  -0.40211  -0.38688
 Alpha  occ. eigenvalues --   -0.38124  -0.35739  -0.34185
 Alpha virt. eigenvalues --    0.17623   0.18201   0.19799   0.19873   0.20724
 Alpha virt. eigenvalues --    0.21740   0.22138   0.23362   0.23667   0.24399
 Alpha virt. eigenvalues --    0.25303   0.25738   0.26624   0.27363   0.27755
 Alpha virt. eigenvalues --    0.27798   0.28270   0.29079   0.29176   0.29706
 Alpha virt. eigenvalues --    0.29970   0.30322   0.31265   0.31643   0.31951
 Alpha virt. eigenvalues --    0.32300   0.32573   0.32641   0.33642   0.33891
 Alpha virt. eigenvalues --    0.34342   0.34575   0.34842   0.35133   0.35633
 Alpha virt. eigenvalues --    0.35908   0.35971   0.36699   0.37197   0.37762
 Alpha virt. eigenvalues --    0.38403   0.39078   0.39137   0.39752   0.39995
 Alpha virt. eigenvalues --    0.40764   0.41440   0.42281   0.42838   0.44094
 Alpha virt. eigenvalues --    0.44916   0.45144   0.45744   0.46061   0.46101
 Alpha virt. eigenvalues --    0.47507   0.48170   0.49281   0.52365   0.53643
 Alpha virt. eigenvalues --    0.54375   0.55088   0.57557   0.57915   0.59855
 Alpha virt. eigenvalues --    0.62324   0.64398   0.65198   0.69226   0.70415
 Alpha virt. eigenvalues --    0.71192   0.71642   0.72415   0.72818   0.73285
 Alpha virt. eigenvalues --    0.74003   0.74418   0.75265   0.75816   0.76290
 Alpha virt. eigenvalues --    0.76694   0.77337   0.78201   0.78554   0.79202
 Alpha virt. eigenvalues --    0.79273   0.80146   0.80736   0.81490   0.83060
 Alpha virt. eigenvalues --    0.84102   0.84690   0.85521   0.86502   0.86890
 Alpha virt. eigenvalues --    0.88244   0.88749   0.88862   0.90355   0.90745
 Alpha virt. eigenvalues --    0.91531   0.92010   0.92558   0.93098   0.93339
 Alpha virt. eigenvalues --    0.94695   0.95222   0.96103   0.97277   0.97513
 Alpha virt. eigenvalues --    0.97955   0.99219   1.00128   1.00526   1.00750
 Alpha virt. eigenvalues --    1.01696   1.02309   1.02437   1.03018   1.04169
 Alpha virt. eigenvalues --    1.04779   1.05643   1.05901   1.06598   1.07571
 Alpha virt. eigenvalues --    1.07731   1.08531   1.09999   1.10631   1.11612
 Alpha virt. eigenvalues --    1.11995   1.13147   1.13337   1.13704   1.14630
 Alpha virt. eigenvalues --    1.14860   1.15039   1.15492   1.15635   1.16271
 Alpha virt. eigenvalues --    1.16567   1.17094   1.17389   1.17655   1.18302
 Alpha virt. eigenvalues --    1.18520   1.18573   1.19062   1.19286   1.19549
 Alpha virt. eigenvalues --    1.20127   1.20304   1.20694   1.21239   1.21686
 Alpha virt. eigenvalues --    1.22019   1.22081   1.22532   1.22642   1.23165
 Alpha virt. eigenvalues --    1.23779   1.23862   1.24960   1.25141   1.25937
 Alpha virt. eigenvalues --    1.26423   1.27203   1.27712   1.28762   1.29162
 Alpha virt. eigenvalues --    1.29807   1.30471   1.31314   1.32006   1.32483
 Alpha virt. eigenvalues --    1.33915   1.35149   1.35793   1.36314   1.37196
 Alpha virt. eigenvalues --    1.38950   1.39907   1.41884   1.42186   1.43129
 Alpha virt. eigenvalues --    1.44505   1.46166   1.46963   1.48101   1.49367
 Alpha virt. eigenvalues --    1.49885   1.51085   1.54372   1.54549   1.55185
 Alpha virt. eigenvalues --    1.57440   1.59066   1.59751   1.61386   1.61938
 Alpha virt. eigenvalues --    1.64421   1.64859   1.66438   1.68452   1.69739
 Alpha virt. eigenvalues --    1.71174   1.71612   1.72310   1.73284   1.74289
 Alpha virt. eigenvalues --    1.74790   1.77752   1.78750   1.79107   1.80465
 Alpha virt. eigenvalues --    1.81260   1.82989   1.84580   1.87302   1.88302
 Alpha virt. eigenvalues --    1.89848   1.90443   1.91637   1.92805   1.93896
 Alpha virt. eigenvalues --    1.95928   1.96699   1.98677   2.00046   2.01548
 Alpha virt. eigenvalues --    2.04585   2.05226   2.06489   2.07591   2.08908
 Alpha virt. eigenvalues --    2.10015   2.10076   2.12001   2.12544   2.12688
 Alpha virt. eigenvalues --    2.13739   2.14274   2.14827   2.15652   2.16428
 Alpha virt. eigenvalues --    2.16790   2.17893   2.18141   2.19137   2.19776
 Alpha virt. eigenvalues --    2.21435   2.21602   2.22186   2.23562   2.24106
 Alpha virt. eigenvalues --    2.25179   2.25975   2.26336   2.27459   2.28314
 Alpha virt. eigenvalues --    2.28882   2.29243   2.29785   2.31812   2.32993
 Alpha virt. eigenvalues --    2.33584   2.34385   2.35678   2.36722   2.37144
 Alpha virt. eigenvalues --    2.37410   2.37876   2.38826   2.39524   2.39948
 Alpha virt. eigenvalues --    2.41252   2.42101   2.43122   2.44456   2.45842
 Alpha virt. eigenvalues --    2.46040   2.46851   2.48591   2.49418   2.49839
 Alpha virt. eigenvalues --    2.51780   2.52474   2.53764   2.55215   2.56026
 Alpha virt. eigenvalues --    2.57155   2.57652   2.59443   2.59648   2.61117
 Alpha virt. eigenvalues --    2.63298   2.63450   2.64275   2.64922   2.66050
 Alpha virt. eigenvalues --    2.66772   2.68820   2.70212   2.70684   2.71113
 Alpha virt. eigenvalues --    2.71828   2.73614   2.75022   2.75548   2.76510
 Alpha virt. eigenvalues --    2.76739   2.78040   2.79206   2.79652   2.80671
 Alpha virt. eigenvalues --    2.82145   2.83209   2.85271   2.86112   2.86509
 Alpha virt. eigenvalues --    2.88345   2.89586   2.91165   2.92602   2.95993
 Alpha virt. eigenvalues --    2.97730   2.98016   2.98867   2.99311   3.02602
 Alpha virt. eigenvalues --    3.03652   3.04994   3.05642   3.06716   3.07370
 Alpha virt. eigenvalues --    3.10565   3.11229   3.13241   3.14112   3.15937
 Alpha virt. eigenvalues --    3.18239   3.18797   3.22438   3.30615   3.30811
 Alpha virt. eigenvalues --    3.34547   3.35061   3.37903   3.40661   3.41576
 Alpha virt. eigenvalues --    3.42860   3.43510   3.55455   3.55872   3.57735
 Alpha virt. eigenvalues --    3.61080   4.38597   4.41447   4.49310   4.49587
 Alpha virt. eigenvalues --    4.52026   4.53237   4.57044   4.58905   4.62004
 Alpha virt. eigenvalues --    4.63833   4.66144   4.67380   4.70196   4.71191
 Alpha virt. eigenvalues --    4.74679   4.77451   4.79270   4.83304   4.84156
 Alpha virt. eigenvalues --    4.89541   4.91087   4.93917   4.95375   4.99278
 Alpha virt. eigenvalues --    5.02417   5.10370   5.23695   5.24511
          Condensed to atoms (all electrons):
 Mulliken atomic charges:
              1
     1  C   -0.270845
     2  N   -0.747523
     3  C    0.806245
     4  O   -0.637415
     5  C    0.083492
     6  C   -0.454710
     7  C   -0.302304
     8  C   -0.315283
     9  C   -0.373207
    10  C   -0.178691
    11  C   -0.178256
    12  C   -0.352871
    13  C   -0.310342
    14  C   -0.329011
    15  C    0.090932
    16  C   -0.509616
    17  N   -0.787623
    18  C    0.767354
    19  C   -0.595648
    20  O   -0.614021
    21  C    0.820719
    22  O   -0.639586
    23  N   -0.805719
    24  C   -0.275524
    25  N   -0.821655
    26  C    0.725760
    27  C   -0.585978
    28  O   -0.598261
    29  H    0.182830
    30  H    0.190159
    31  H    0.157381
    32  H    0.389026
    33  H    0.206674
    34  H    0.144048
    35  H    0.185114
    36  H    0.151931
    37  H    0.187577
    38  H    0.163171
    39  H    0.174250
    40  H    0.215009
    41  H    0.173230
    42  H    0.183810
    43  H    0.169124
    44  H    0.176296
    45  H    0.159366
    46  H    0.150137
    47  H    0.199530
    48  H    0.172835
    49  H    0.185704
    50  H    0.183284
    51  H    0.148680
    52  H    0.226251
    53  H    0.389779
    54  H    0.210876
    55  H    0.209376
    56  H    0.176164
    57  H    0.395238
    58  H    0.164963
    59  H    0.200002
    60  H    0.184465
    61  H    0.382912
    62  H    0.216926
    63  H    0.179924
    64  H    0.203547
 Sum of Mulliken atomic charges =   0.00000
 Mulliken charges with hydrogens summed into heavy atoms:
              1
     1  C    0.259524
     2  N   -0.358497
     3  C    0.806245
     4  O   -0.637415
     5  C    0.083492
     6  C    0.081127
     7  C    0.037204
     8  C    0.022138
     9  C    0.015032
    10  C    0.005118
    11  C   -0.009132
    12  C   -0.017209
    13  C    0.039325
    14  C    0.029527
    15  C    0.090932
    16  C    0.048599
    17  N   -0.397844
    18  C    0.767354
    19  C    0.000767
    20  O   -0.614021
    21  C    0.820719
    22  O   -0.639586
    23  N   -0.410481
    24  C    0.273906
    25  N   -0.438743
    26  C    0.725760
    27  C    0.014419
    28  O   -0.598261
 Sum of Mulliken charges with hydrogens summed into heavy atoms =   0.00000
 Electronic spatial extent (au):  <R**2>=          21717.5550
 Charge=              0.0000 electrons
 Dipole moment (field-independent basis, Debye):
    X=             -4.4175    Y=             -4.5501    Z=              5.4800  Tot=              8.3814
 Quadrupole moment (field-independent basis, Debye-Ang):
   XX=           -175.4274   YY=           -156.9465   ZZ=           -175.5661
   XY=             14.2976   XZ=            -11.1369   YZ=              7.8096
 Traceless Quadrupole moment (field-independent basis, Debye-Ang):
   XX=             -6.1141   YY=             12.3669   ZZ=             -6.2528
   XY=             14.2976   XZ=            -11.1369   YZ=              7.8096
 Octapole moment (field-independent basis, Debye-Ang**2):
  XXX=           -460.7780  YYY=             43.8314  ZZZ=             19.0433  XYY=             65.9582
  XXY=           -231.4719  XXZ=            122.6596  XZZ=             -6.4429  YZZ=              1.7363
  YYZ=             -0.9506  XYZ=              3.3270
 Hexadecapole moment (field-independent basis, Debye-Ang**3):
 XXXX=         -25000.9112 YYYY=          -2322.4677 ZZZZ=          -1363.4475 XXXY=            186.5730
 XXXZ=           -723.3297 YYYX=            114.5996 YYYZ=            -10.4400 ZZZX=            -76.9683
 ZZZY=             23.1565 XXYY=          -4213.1745 XXZZ=          -4308.6226 YYZZ=           -627.7041
 XXYZ=            142.4101 YYXZ=            -59.2867 ZZXY=             26.1787
 N-N= 2.698941398056D+03 E-N=-8.430377065127D+03  KE= 1.294156501671D+03
 1\1\GINC-MOSURA\SP\RHF\6-31G(d)\C20H36N4O4\MARIE\05-Dec-2019\0\\#SP HF
 /6-31G* Geom=(ModRedundant)\\paramfit run\\0,1\C,0,0.,0.,0.\N,0,1.4481
 87,0.,0.\C,0,2.1232,0.47592,1.072365\O,0,1.590179,0.696732,2.124447\C,
 0,3.650505,0.594143,0.921539\C,0,4.198902,1.549248,1.986845\C,0,4.3077
 51,-0.809116,1.023981\C,0,4.133566,-1.622781,2.319066\C,0,2.832729,-2.
 433298,2.484965\C,0,2.579342,-3.423586,1.372579\C,0,2.834093,-4.721989
 ,1.375535\C,0,3.442731,-5.535663,2.492337\C,0,2.42774,-6.370218,3.2941
 33\C,0,1.693892,-7.402618,2.427801\C,0,0.774274,-8.428536,3.139447\C,0
 ,0.118887,-9.296969,2.053288\N,0,1.59533,-9.267679,4.001559\C,0,1.0367
 79,-10.167772,4.862321\C,0,1.96438,-10.678762,5.940862\O,0,-0.103289,-
 10.530888,4.775526\C,0,-0.228361,-7.657085,4.027316\O,0,0.090004,-7.29
 6707,5.128542\N,0,-1.416619,-7.323616,3.478843\C,0,-2.421442,-6.64525,
 4.271531\N,0,3.997412,1.070275,-0.425452\C,0,3.198765,1.889464,-1.1675
 86\C,0,3.875707,2.545804,-2.35295\O,0,2.042104,2.070093,-0.911367\H,0,
 -0.403259,1.006147,0.\H,0,-0.36496,-0.516002,0.875939\H,0,-0.345658,-0
 .522086,-0.883346\H,0,1.904244,0.070913,-0.879357\H,0,3.932135,1.22176
 ,2.980082\H,0,5.28092,1.595925,1.9075\H,0,3.792711,2.540594,1.848395\H
 ,0,5.374584,-0.64325,0.891407\H,0,3.984642,-1.403324,0.174983\H,0,4.96
 1565,-2.324757,2.354635\H,0,4.250121,-0.975721,3.182259\H,0,1.985724,-
 1.764045,2.562723\H,0,2.895638,-2.94811,3.437249\H,0,2.135502,-3.00918
 1,0.481856\H,0,2.579482,-5.276386,0.485828\H,0,3.971519,-4.889909,3.18
 2881\H,0,4.191817,-6.202016,2.066382\H,0,2.965623,-6.85691,4.102952\H,
 0,1.714584,-5.707921,3.766998\H,0,2.42081,-7.979938,1.860503\H,0,1.083
 167,-6.875737,1.704087\H,0,0.891187,-9.872528,1.556434\H,0,-0.36551,-8
 .684705,1.299714\H,0,-0.597925,-9.98679,2.472891\H,0,2.435807,-8.84784
 ,4.327205\H,0,1.585188,-11.616367,6.31792\H,0,1.981002,-9.957975,6.752
 844\H,0,2.97817,-10.810647,5.57862\H,0,-1.730263,-7.831365,2.685667\H,
 0,-3.24021,-6.362494,3.623002\H,0,-1.998054,-5.755067,4.713054\H,0,-2.
 799425,-7.276973,5.068907\H,0,4.970426,1.0915,-0.636023\H,0,3.121182,2
 .834701,-3.07003\H,0,4.598939,1.891602,-2.826768\H,0,4.393897,3.438528
 ,-2.0178\\Version=EM64L-G09RevA.02\State=1-A\HF=-1295.5965258\RMSD=5.4
 66e-09\Dipole=2.2628486,0.3759555,-2.3689108\Quadrupole=12.6727347,-14
 .3890612,1.7163265,8.3772983,1.6157369,-4.537515\PG=C01 [X(C20H36N4O4)
 ]\\@


 THERE ARE PEOPLE SO ADDICTED TO EXAGERATING THEY
 CAN'T TELL THE TRUTH WITHOUT LYING. -- FORTUNE COOKIE
 Job cpu time:  0 days  0 hours  5 minutes 11.6 seconds.
 File lengths (MBytes):  RWF=    132 Int=      0 D2E=      0 Chk=     10 Scr=      1
 Normal termination of Gaussian 09 at Thu Dec  5 16:51:22 2019.
