 Entering Gaussian System, Link 0=g09
 Input=PHI_130.gau
 Output=PHI_130.log
 Initial command:
 /home/marie/Utilities//g09/l1.exe /tmp/g09/Gau-4350.inp -scrdir=/tmp/g09/
 Entering Link 1 = /home/marie/Utilities//g09/l1.exe PID=      4352.
  
 Copyright (c) 1988,1990,1992,1993,1995,1998,2003,2009, Gaussian, Inc.
                  All Rights Reserved.
  
 This is part of the Gaussian(R) 09 program.  It is based on
 the Gaussian(R) 03 system (copyright 2003, Gaussian, Inc.),
 the Gaussian(R) 98 system (copyright 1998, Gaussian, Inc.),
 the Gaussian(R) 94 system (copyright 1995, Gaussian, Inc.),
 the Gaussian 92(TM) system (copyright 1992, Gaussian, Inc.),
 the Gaussian 90(TM) system (copyright 1990, Gaussian, Inc.),
 the Gaussian 88(TM) system (copyright 1988, Gaussian, Inc.),
 the Gaussian 86(TM) system (copyright 1986, Carnegie Mellon
 University), and the Gaussian 82(TM) system (copyright 1983,
 Carnegie Mellon University). Gaussian is a federally registered
 trademark of Gaussian, Inc.
  
 This software contains proprietary and confidential information,
 including trade secrets, belonging to Gaussian, Inc.
  
 This software is provided under written license and may be
 used, copied, transmitted, or stored only in accord with that
 written license.
  
 The following legend is applicable only to US Government
 contracts under FAR:
  
                    RESTRICTED RIGHTS LEGEND
  
 Use, reproduction and disclosure by the US Government is
 subject to restrictions as set forth in subparagraphs (a)
 and (c) of the Commercial Computer Software - Restricted
 Rights clause in FAR 52.227-19.
  
 Gaussian, Inc.
 340 Quinnipiac St., Bldg. 40, Wallingford CT 06492
  
  
 ---------------------------------------------------------------
 Warning -- This program may not be used in any manner that
 competes with the business of Gaussian, Inc. or will provide
 assistance to any competitor of Gaussian, Inc.  The licensee
 of this program is prohibited from giving any competitor of
 Gaussian, Inc. access to this program.  By using this program,
 the user acknowledges that Gaussian, Inc. is engaged in the
 business of creating and licensing software in the field of
 computational chemistry and represents and warrants to the
 licensee that it is not a competitor of Gaussian, Inc. and that
 it will not use this program in any manner prohibited above.
 ---------------------------------------------------------------
  

 Cite this work as:
 Gaussian 09, Revision A.02,
 M. J. Frisch, G. W. Trucks, H. B. Schlegel, G. E. Scuseria, 
 M. A. Robb, J. R. Cheeseman, G. Scalmani, V. Barone, B. Mennucci, 
 G. A. Petersson, H. Nakatsuji, M. Caricato, X. Li, H. P. Hratchian, 
 A. F. Izmaylov, J. Bloino, G. Zheng, J. L. Sonnenberg, M. Hada, 
 M. Ehara, K. Toyota, R. Fukuda, J. Hasegawa, M. Ishida, T. Nakajima, 
 Y. Honda, O. Kitao, H. Nakai, T. Vreven, J. A. Montgomery, Jr., 
 J. E. Peralta, F. Ogliaro, M. Bearpark, J. J. Heyd, E. Brothers, 
 K. N. Kudin, V. N. Staroverov, R. Kobayashi, J. Normand, 
 K. Raghavachari, A. Rendell, J. C. Burant, S. S. Iyengar, J. Tomasi, 
 M. Cossi, N. Rega, J. M. Millam, M. Klene, J. E. Knox, J. B. Cross, 
 V. Bakken, C. Adamo, J. Jaramillo, R. Gomperts, R. E. Stratmann, 
 O. Yazyev, A. J. Austin, R. Cammi, C. Pomelli, J. W. Ochterski, 
 R. L. Martin, K. Morokuma, V. G. Zakrzewski, G. A. Voth, 
 P. Salvador, J. J. Dannenberg, S. Dapprich, A. D. Daniels, 
 O. Farkas, J. B. Foresman, J. V. Ortiz, J. Cioslowski, 
 and D. J. Fox, Gaussian, Inc., Wallingford CT, 2009.
 
 ******************************************
 Gaussian 09:  EM64L-G09RevA.02 11-Jun-2009
                 5-Dec-2019 
 ******************************************
 %chk=PHI_130
 %NoSave
 ---------------------------------
 #SP HF/6-31G* Geom=(ModRedundant)
 ---------------------------------
 1/18=120,38=1/1;
 2/12=2,17=6,18=5,40=1/2;
 3/5=1,6=6,7=1,11=9,16=1,25=1,30=1/1,2,3;
 4//1;
 5/5=2,38=5/2;
 6/7=2,8=2,9=2,10=2,28=1/1;
 99/5=1,9=1/99;
 ------------
 paramfit run
 ------------
 Symbolic Z-matrix:
 Charge =  0 Multiplicity = 1
 C-CT--0.3208          0.        0.        0. 
 N-N--0.5622           1.44819   0.        0. 
 C-C-0.8053            2.1232    0.47592   1.07237 
 O-O--0.6151           1.59018   0.69673   2.12445 
 C-CX-0.0839           3.65051   0.59414   0.92154 
 C-CU--0.3230          4.1989    1.54925   1.98685 
 C-CU--0.0657          4.30775  -0.80912   1.02398 
 C-CU--0.0109          4.13357  -1.62278   2.31907 
 C-CU-0.0816           2.83273  -2.4333    2.48497 
 C-CM--0.2354          2.57934  -3.42359   1.37258 
 C-CM--0.2653          2.83409  -4.72199   1.37554 
 C-CU-0.1214           3.44273  -5.53566   2.49234 
 C-CU--0.0354          2.42774  -6.37022   3.29413 
 C-CU--0.0984          1.69389  -7.40262   2.4278 
 C-CU-0.1300           0.77427  -8.42854   3.13945 
 C-CU--0.3561          0.11889  -9.29697   2.05329 
 N-N--0.7186           1.59533  -9.26768   4.00156 
 C-C-0.8537            1.03678  -10.16777   4.86232 
 C-CT--0.3868          1.96438  -10.67876   5.94086 
 O-O--0.6323          -0.10329  -10.53089   4.77553 
 C-C-0.7903           -0.22836  -7.65709   4.02732 
 O-O--0.6136           0.09     -7.29671   5.12854 
 N-N--0.5650          -1.41662  -7.32362   3.47884 
 C-CT--0.3231         -2.42144  -6.64525   4.27153 
 N-N--0.7191           3.99741   1.07028  -0.42545 
 C-C-0.8539            4.84813   2.10875  -0.66529 
 C-CT--0.3903          5.3486    2.21374  -2.091 
 O-O--0.6290           5.16929   2.89075   0.1841 
 H-H1-0.1459          -0.40326   1.00615   0. 
 H-H1-0.1459          -0.36496  -0.516     0.87594 
 H-H1-0.1459          -0.34566  -0.52209  -0.88335 
 H-H-0.3572            1.90424   0.07091  -0.87936 
 H-HC-0.0997           3.93214   1.22176   2.98008 
 H-HC-0.0997           5.28092   1.59593   1.9075 
 H-HC-0.0997           3.79271   2.54059   1.8484 
 H-HC-0.0347           5.37458  -0.64325   0.89141 
 H-HC-0.0347           3.98464  -1.40332   0.17498 
 H-HC-0.0243           4.96157  -2.32476   2.35464 
 H-HC-0.0243           4.25012  -0.97572   3.18226 
 H-HC-0.0171           1.98572  -1.76405   2.56272 
 H-HC-0.0171           2.89564  -2.94811   3.43725 
 H-HA-0.1313           2.1355   -3.00918   0.48186 
 H-HA-0.1359           2.57948  -5.27639   0.48583 
 H-HC-0.0092           3.97152  -4.88991   3.18288 
 H-HC-0.0092           4.19182  -6.20202   2.06638 
 H-HC-0.0318           2.96562  -6.85691   4.10295 
 H-HC-0.0318           1.71458  -5.70792   3.767 
 H-HC-0.0435           2.42081  -7.97994   1.8605 
 H-HC-0.0435           1.08317  -6.87574   1.70409 
 H-HC-0.1066           0.89119  -9.87253   1.55643 
 H-HC-0.1066          -0.36551  -8.68471   1.29971 
 H-HC-0.1066          -0.59793  -9.98679   2.47289 
 H-H-0.3529            2.43581  -8.84784   4.32721 
 H-HC-0.1047           1.58519  -11.61637   6.31792 
 H-HC-0.1047           1.981    -9.95798   6.75284 
 H-HC-0.1047           2.97817  -10.81065   5.57862 
 H-H-0.3615           -1.73026  -7.83136   2.68567 
 H-H1-0.1469          -3.24021  -6.36249   3.623 
 H-H1-0.1469          -1.99805  -5.75507   4.71305 
 H-H1-0.1469          -2.79943  -7.27697   5.06891 
 H-H-0.3570            3.89936   0.40079  -1.15602 
 H-HC-0.1060           5.67013   3.22862  -2.27433 
 H-HC-0.1060           4.59042   1.93422  -2.8139 
 H-HC-0.1060           6.19989   1.55293  -2.2192 
 
 The following ModRedundant input section has been read:
 D    *    5   25    * F                                                       
 Stoichiometry    C20H36N4O4
 Framework group  C1[X(C20H36N4O4)]
 Deg. of freedom   186
 Full point group                 C1      NOp   1
 Largest Abelian subgroup         C1      NOp   1
 Largest concise Abelian subgroup C1      NOp   1
                         Standard orientation:                         
 ---------------------------------------------------------------------
 Center     Atomic      Atomic             Coordinates (Angstroms)
 Number     Number       Type             X           Y           Z
 ---------------------------------------------------------------------
      1          6    20001001       -3.594221    3.218897    0.806178
      2          7    20001014       -4.019052    1.836549    0.729514
      3          6    20001002       -4.265546    1.271982   -0.475730
      4          8    20001024       -3.937766    1.786944   -1.508745
      5          6    90000001       -4.871517   -0.142879   -0.456915
      6          6    90000002       -5.509695   -0.445859   -1.816611
      7          6    90000002       -3.779939   -1.186901   -0.096252
      8          6    90000002       -2.552018   -1.330930   -1.013367
      9          6    90000002       -1.391236   -0.335825   -0.815905
     10          6    20001004       -0.824759   -0.322130    0.584521
     11          6    20001004        0.256808   -0.945716    1.022825
     12          6    90000002        1.192753   -1.827069    0.231005
     13          6    90000002        2.513425   -1.147209   -0.172953
     14          6    90000002        3.344355   -0.700908    1.037536
     15          6    90000002        4.775793   -0.163117    0.779833
     16          6    90000002        5.360948    0.268531    2.134353
     17          7    20001014        5.583027   -1.240529    0.223877
     18          6    20001002        6.848732   -1.018831   -0.236447
     19          6    20001001        7.408412   -2.113874   -1.115334
     20          8    20001024        7.475911   -0.032111    0.032201
     21          6    20001002        4.693980    0.970501   -0.267517
     22          8    20001024        4.665007    0.710925   -1.440423
     23          7    20001014        4.554066    2.232891    0.191586
     24          6    20001001        4.522435    3.346627   -0.734046
     25          7    20001014       -5.867935   -0.259684    0.617766
     26          6    20001002       -7.125353   -0.754265    0.433480
     27          6    20001001       -7.864114   -1.121964    1.703578
     28          8    20001024       -7.618350   -0.879025   -0.651659
     29          1    20001035       -4.371152    3.898484    0.475287
     30          1    20001035       -2.721748    3.367447    0.186947
     31          1    20001035       -3.337173    3.445053    1.833374
     32          1    20001029       -4.523423    1.470883    1.502938
     33          1    20001034       -4.792743   -0.342350   -2.616735
     34          1    20001034       -5.896386   -1.460604   -1.816027
     35          1    20001034       -6.321009    0.239890   -2.012684
     36          1    20001034       -4.286838   -2.149286   -0.086809
     37          1    20001034       -3.453324   -1.005300    0.922877
     38          1    20001034       -2.157887   -2.328845   -0.844712
     39          1    20001034       -2.860101   -1.300678   -2.053340
     40          1    20001034       -1.711048    0.664348   -1.078084
     41          1    20001034       -0.618643   -0.599588   -1.529602
     42          1    20001033       -1.374740    0.272417    1.295962
     43          1    20001033        0.513672   -0.815576    2.062462
     44          1    20001034        0.704530   -2.181092   -0.668868
     45          1    20001034        1.416953   -2.713566    0.822993
     46          1    20001034        3.071496   -1.848140   -0.787467
     47          1    20001034        2.298696   -0.298804   -0.809294
     48          1    20001034        3.446417   -1.532313    1.731715
     49          1    20001034        2.801653    0.076591    1.562245
     50          1    20001034        5.472763   -0.609593    2.759632
     51          1    20001034        4.694775    0.952112    2.650408
     52          1    20001034        6.331727    0.727404    2.021375
     53          1    20001029        5.076784   -1.937946   -0.272147
     54          1    20001034        8.485740   -2.047473   -1.119650
     55          1    20001034        7.046138   -1.963793   -2.127934
     56          1    20001034        7.101692   -3.100058   -0.784055
     57          1    20001029        4.820496    2.427674    1.127740
     58          1    20001035        4.284265    4.247037   -0.183173
     59          1    20001035        3.760573    3.178641   -1.481021
     60          1    20001035        5.474221    3.478087   -1.238600
     61          1    20001029       -5.498952   -0.321534    1.540574
     62          1    20001034       -8.925541   -1.121471    1.502716
     63          1    20001034       -7.645776   -0.439923    2.517641
     64          1    20001034       -7.570716   -2.120954    2.009747
 ---------------------------------------------------------------------
 Rotational constants (GHZ):      0.4003996      0.0488757      0.0468242
 Standard basis: 6-31G(d) (6D, 7F)
 There are   492 symmetry adapted basis functions of A   symmetry.
 Integral buffers will be    131072 words long.
 Raffenetti 1 integral format.
 Two-electron integral symmetry is turned on.
   492 basis functions,   928 primitive gaussians,   492 cartesian basis functions
   108 alpha electrons      108 beta electrons
       nuclear repulsion energy      2673.3087534076 Hartrees.
 NAtoms=   64 NActive=   64 NUniq=   64 SFac= 7.50D-01 NAtFMM=   80 NAOKFM=F Big=T
 One-electron integrals computed using PRISM.
 NBasis=   492 RedAO= T  NBF=   492
 NBsUse=   492 1.00D-06 NBFU=   492
 Harris functional with IExCor=  205 diagonalized for initial guess.
 ExpMin= 1.61D-01 ExpMax= 5.48D+03 ExpMxC= 8.25D+02 IAcc=1 IRadAn=         1 AccDes= 0.00D+00
 HarFok:  IExCor=  205 AccDes= 0.00D+00 IRadAn=         1 IDoV= 1
 ScaDFX=  1.000000  1.000000  1.000000  1.000000
 FoFCou: FMM=F IPFlag=           0 FMFlag=      100000 FMFlg1=           1
         NFxFlg=           0 DoJE=T BraDBF=F KetDBF=T FulRan=T
         Omega=  0.000000  0.000000  1.000000  0.000000  0.000000 ICntrl=     500 IOpCl=  0
         NMat0=    1 NMatS0=    1 NMatT0=    0 NMatD0=    1 NMtDS0=    0 NMtDT0=    0
         I1Cent=           4 NGrid=           0.
 Petite list used in FoFCou.
 Initial guess orbital symmetries:
       Occupied  (A) (A) (A) (A) (A) (A) (A) (A) (A) (A) (A) (A)
                 (A) (A) (A) (A) (A) (A) (A) (A) (A) (A) (A) (A)
                 (A) (A) (A) (A) (A) (A) (A) (A) (A) (A) (A) (A)
                 (A) (A) (A) (A) (A) (A) (A) (A) (A) (A) (A) (A)
                 (A) (A) (A) (A) (A) (A) (A) (A) (A) (A) (A) (A)
                 (A) (A) (A) (A) (A) (A) (A) (A) (A) (A) (A) (A)
                 (A) (A) (A) (A) (A) (A) (A) (A) (A) (A) (A) (A)
                 (A) (A) (A) (A) (A) (A) (A) (A) (A) (A) (A) (A)
                 (A) (A) (A) (A) (A) (A) (A) (A) (A) (A) (A) (A)
       Virtual   (A) (A) (A) (A) (A) (A) (A) (A) (A) (A) (A) (A)
                 (A) (A) (A) (A) (A) (A) (A) (A) (A) (A) (A) (A)
                 (A) (A) (A) (A) (A) (A) (A) (A) (A) (A) (A) (A)
                 (A) (A) (A) (A) (A) (A) (A) (A) (A) (A) (A) (A)
                 (A) (A) (A) (A) (A) (A) (A) (A) (A) (A) (A) (A)
                 (A) (A) (A) (A) (A) (A) (A) (A) (A) (A) (A) (A)
                 (A) (A) (A) (A) (A) (A) (A) (A) (A) (A) (A) (A)
                 (A) (A) (A) (A) (A) (A) (A) (A) (A) (A) (A) (A)
                 (A) (A) (A) (A) (A) (A) (A) (A) (A) (A) (A) (A)
                 (A) (A) (A) (A) (A) (A) (A) (A) (A) (A) (A) (A)
                 (A) (A) (A) (A) (A) (A) (A) (A) (A) (A) (A) (A)
                 (A) (A) (A) (A) (A) (A) (A) (A) (A) (A) (A) (A)
                 (A) (A) (A) (A) (A) (A) (A) (A) (A) (A) (A) (A)
                 (A) (A) (A) (A) (A) (A) (A) (A) (A) (A) (A) (A)
                 (A) (A) (A) (A) (A) (A) (A) (A) (A) (A) (A) (A)
                 (A) (A) (A) (A) (A) (A) (A) (A) (A) (A) (A) (A)
                 (A) (A) (A) (A) (A) (A) (A) (A) (A) (A) (A) (A)
                 (A) (A) (A) (A) (A) (A) (A) (A) (A) (A) (A) (A)
                 (A) (A) (A) (A) (A) (A) (A) (A) (A) (A) (A) (A)
                 (A) (A) (A) (A) (A) (A) (A) (A) (A) (A) (A) (A)
                 (A) (A) (A) (A) (A) (A) (A) (A) (A) (A) (A) (A)
                 (A) (A) (A) (A) (A) (A) (A) (A) (A) (A) (A) (A)
                 (A) (A) (A) (A) (A) (A) (A) (A) (A) (A) (A) (A)
                 (A) (A) (A) (A) (A) (A) (A) (A) (A) (A) (A) (A)
                 (A) (A) (A) (A) (A) (A) (A) (A) (A) (A) (A) (A)
                 (A) (A) (A) (A) (A) (A) (A) (A) (A) (A) (A) (A)
                 (A) (A) (A) (A) (A) (A) (A) (A) (A) (A) (A) (A)
                 (A) (A) (A) (A) (A) (A) (A) (A) (A) (A) (A) (A)
                 (A) (A) (A) (A) (A) (A) (A) (A) (A) (A) (A) (A)
                 (A) (A) (A) (A) (A) (A) (A) (A) (A) (A) (A) (A)
                 (A) (A) (A) (A) (A) (A) (A) (A) (A) (A) (A) (A)
                 (A) (A) (A) (A) (A) (A) (A) (A) (A) (A) (A) (A)
 The electronic state of the initial guess is 1-A.
 Requested convergence on RMS density matrix=1.00D-08 within 128 cycles.
 Requested convergence on MAX density matrix=1.00D-06.
 Requested convergence on             energy=1.00D-06.
 No special actions if energy rises.
 Integral accuracy reduced to 1.0D-05 until final iterations.
 Initial convergence to 1.0D-05 achieved.  Increase integral accuracy.
 SCF Done:  E(RHF) =  -1295.59754509     A.U. after   14 cycles
             Convg  =    0.6725D-08             -V/T =  2.0011

 **********************************************************************

            Population analysis using the SCF density.

 **********************************************************************

 Orbital symmetries:
       Occupied  (A) (A) (A) (A) (A) (A) (A) (A) (A) (A) (A) (A)
                 (A) (A) (A) (A) (A) (A) (A) (A) (A) (A) (A) (A)
                 (A) (A) (A) (A) (A) (A) (A) (A) (A) (A) (A) (A)
                 (A) (A) (A) (A) (A) (A) (A) (A) (A) (A) (A) (A)
                 (A) (A) (A) (A) (A) (A) (A) (A) (A) (A) (A) (A)
                 (A) (A) (A) (A) (A) (A) (A) (A) (A) (A) (A) (A)
                 (A) (A) (A) (A) (A) (A) (A) (A) (A) (A) (A) (A)
                 (A) (A) (A) (A) (A) (A) (A) (A) (A) (A) (A) (A)
                 (A) (A) (A) (A) (A) (A) (A) (A) (A) (A) (A) (A)
       Virtual   (A) (A) (A) (A) (A) (A) (A) (A) (A) (A) (A) (A)
                 (A) (A) (A) (A) (A) (A) (A) (A) (A) (A) (A) (A)
                 (A) (A) (A) (A) (A) (A) (A) (A) (A) (A) (A) (A)
                 (A) (A) (A) (A) (A) (A) (A) (A) (A) (A) (A) (A)
                 (A) (A) (A) (A) (A) (A) (A) (A) (A) (A) (A) (A)
                 (A) (A) (A) (A) (A) (A) (A) (A) (A) (A) (A) (A)
                 (A) (A) (A) (A) (A) (A) (A) (A) (A) (A) (A) (A)
                 (A) (A) (A) (A) (A) (A) (A) (A) (A) (A) (A) (A)
                 (A) (A) (A) (A) (A) (A) (A) (A) (A) (A) (A) (A)
                 (A) (A) (A) (A) (A) (A) (A) (A) (A) (A) (A) (A)
                 (A) (A) (A) (A) (A) (A) (A) (A) (A) (A) (A) (A)
                 (A) (A) (A) (A) (A) (A) (A) (A) (A) (A) (A) (A)
                 (A) (A) (A) (A) (A) (A) (A) (A) (A) (A) (A) (A)
                 (A) (A) (A) (A) (A) (A) (A) (A) (A) (A) (A) (A)
                 (A) (A) (A) (A) (A) (A) (A) (A) (A) (A) (A) (A)
                 (A) (A) (A) (A) (A) (A) (A) (A) (A) (A) (A) (A)
                 (A) (A) (A) (A) (A) (A) (A) (A) (A) (A) (A) (A)
                 (A) (A) (A) (A) (A) (A) (A) (A) (A) (A) (A) (A)
                 (A) (A) (A) (A) (A) (A) (A) (A) (A) (A) (A) (A)
                 (A) (A) (A) (A) (A) (A) (A) (A) (A) (A) (A) (A)
                 (A) (A) (A) (A) (A) (A) (A) (A) (A) (A) (A) (A)
                 (A) (A) (A) (A) (A) (A) (A) (A) (A) (A) (A) (A)
                 (A) (A) (A) (A) (A) (A) (A) (A) (A) (A) (A) (A)
                 (A) (A) (A) (A) (A) (A) (A) (A) (A) (A) (A) (A)
                 (A) (A) (A) (A) (A) (A) (A) (A) (A) (A) (A) (A)
                 (A) (A) (A) (A) (A) (A) (A) (A) (A) (A) (A) (A)
                 (A) (A) (A) (A) (A) (A) (A) (A) (A) (A) (A) (A)
                 (A) (A) (A) (A) (A) (A) (A) (A) (A) (A) (A) (A)
                 (A) (A) (A) (A) (A) (A) (A) (A) (A) (A) (A) (A)
                 (A) (A) (A) (A) (A) (A) (A) (A) (A) (A) (A) (A)
                 (A) (A) (A) (A) (A) (A) (A) (A) (A) (A) (A) (A)
                 (A) (A) (A) (A) (A) (A) (A) (A) (A) (A) (A) (A)
 The electronic state is 1-A.
 Alpha  occ. eigenvalues --  -20.52854 -20.52505 -20.52100 -20.51668 -15.59633
 Alpha  occ. eigenvalues --  -15.59158 -15.57991 -15.57579 -11.35819 -11.34501
 Alpha  occ. eigenvalues --  -11.34305 -11.33756 -11.28902 -11.28641 -11.26262
 Alpha  occ. eigenvalues --  -11.25083 -11.24172 -11.23477 -11.23464 -11.22611
 Alpha  occ. eigenvalues --  -11.22549 -11.22415 -11.22363 -11.22307 -11.22173
 Alpha  occ. eigenvalues --  -11.21888 -11.21599 -11.19515  -1.40267  -1.39646
 Alpha  occ. eigenvalues --   -1.39430  -1.38156  -1.25746  -1.23609  -1.23203
 Alpha  occ. eigenvalues --   -1.22702  -1.10763  -1.09161  -1.07211  -1.04245
 Alpha  occ. eigenvalues --   -1.01185  -0.99135  -0.98699  -0.96507  -0.95066
 Alpha  occ. eigenvalues --   -0.94501  -0.92035  -0.87370  -0.85855  -0.82733
 Alpha  occ. eigenvalues --   -0.81007  -0.79751  -0.79474  -0.77131  -0.76952
 Alpha  occ. eigenvalues --   -0.73601  -0.71967  -0.71271  -0.68340  -0.67925
 Alpha  occ. eigenvalues --   -0.66902  -0.65936  -0.64649  -0.64074  -0.63821
 Alpha  occ. eigenvalues --   -0.63109  -0.62679  -0.61875  -0.61482  -0.61239
 Alpha  occ. eigenvalues --   -0.61078  -0.60163  -0.59389  -0.58756  -0.58497
 Alpha  occ. eigenvalues --   -0.58047  -0.57723  -0.56458  -0.56263  -0.55946
 Alpha  occ. eigenvalues --   -0.55823  -0.55104  -0.54858  -0.54334  -0.53525
 Alpha  occ. eigenvalues --   -0.53144  -0.53055  -0.52841  -0.52199  -0.51729
 Alpha  occ. eigenvalues --   -0.51380  -0.50100  -0.49807  -0.49059  -0.48577
 Alpha  occ. eigenvalues --   -0.48123  -0.46990  -0.46457  -0.44537  -0.43626
 Alpha  occ. eigenvalues --   -0.41572  -0.41117  -0.40721  -0.39738  -0.38910
 Alpha  occ. eigenvalues --   -0.38362  -0.38156  -0.34612
 Alpha virt. eigenvalues --    0.17121   0.18030   0.19121   0.19594   0.19695
 Alpha virt. eigenvalues --    0.21529   0.21889   0.22886   0.23200   0.23885
 Alpha virt. eigenvalues --    0.25193   0.25854   0.26016   0.26642   0.27431
 Alpha virt. eigenvalues --    0.27952   0.28515   0.28716   0.29094   0.29440
 Alpha virt. eigenvalues --    0.29864   0.30577   0.31082   0.31202   0.31782
 Alpha virt. eigenvalues --    0.32013   0.32115   0.32794   0.33493   0.33660
 Alpha virt. eigenvalues --    0.33984   0.34325   0.34609   0.35224   0.35334
 Alpha virt. eigenvalues --    0.35595   0.36034   0.36916   0.37123   0.37504
 Alpha virt. eigenvalues --    0.38430   0.38861   0.38951   0.39864   0.40221
 Alpha virt. eigenvalues --    0.40836   0.41089   0.42146   0.42553   0.43638
 Alpha virt. eigenvalues --    0.44751   0.45437   0.45587   0.45870   0.47288
 Alpha virt. eigenvalues --    0.47420   0.48722   0.49080   0.51403   0.52177
 Alpha virt. eigenvalues --    0.53741   0.56729   0.57674   0.58574   0.59658
 Alpha virt. eigenvalues --    0.61790   0.62392   0.64211   0.68472   0.70131
 Alpha virt. eigenvalues --    0.71037   0.71406   0.72261   0.72587   0.73371
 Alpha virt. eigenvalues --    0.73924   0.74933   0.75703   0.75952   0.76362
 Alpha virt. eigenvalues --    0.76739   0.77241   0.77713   0.78385   0.78925
 Alpha virt. eigenvalues --    0.79319   0.79751   0.80562   0.81797   0.82597
 Alpha virt. eigenvalues --    0.83780   0.84104   0.85326   0.85355   0.86177
 Alpha virt. eigenvalues --    0.86549   0.88013   0.88801   0.89351   0.90278
 Alpha virt. eigenvalues --    0.90896   0.91969   0.92325   0.92858   0.93311
 Alpha virt. eigenvalues --    0.93782   0.94712   0.96299   0.96957   0.97904
 Alpha virt. eigenvalues --    0.98608   0.98869   0.99795   1.00131   1.00338
 Alpha virt. eigenvalues --    1.00759   1.01962   1.02432   1.02560   1.03694
 Alpha virt. eigenvalues --    1.04261   1.04574   1.05954   1.06376   1.07196
 Alpha virt. eigenvalues --    1.07488   1.08209   1.09678   1.10354   1.10899
 Alpha virt. eigenvalues --    1.11556   1.12882   1.13340   1.13766   1.14031
 Alpha virt. eigenvalues --    1.14364   1.14679   1.14858   1.15205   1.15511
 Alpha virt. eigenvalues --    1.16031   1.16318   1.16568   1.17286   1.17887
 Alpha virt. eigenvalues --    1.18206   1.18559   1.18753   1.19149   1.19216
 Alpha virt. eigenvalues --    1.19509   1.19654   1.20729   1.20862   1.21198
 Alpha virt. eigenvalues --    1.21430   1.21766   1.22035   1.22378   1.22457
 Alpha virt. eigenvalues --    1.22872   1.23565   1.23939   1.25100   1.25837
 Alpha virt. eigenvalues --    1.26176   1.27135   1.27443   1.28131   1.28910
 Alpha virt. eigenvalues --    1.29253   1.29526   1.29818   1.31127   1.32228
 Alpha virt. eigenvalues --    1.33094   1.34053   1.35336   1.35906   1.37114
 Alpha virt. eigenvalues --    1.38598   1.39674   1.40864   1.41609   1.42129
 Alpha virt. eigenvalues --    1.43244   1.46170   1.47547   1.47816   1.48817
 Alpha virt. eigenvalues --    1.50622   1.52663   1.53814   1.54270   1.54727
 Alpha virt. eigenvalues --    1.56450   1.58473   1.59564   1.61074   1.61627
 Alpha virt. eigenvalues --    1.63779   1.64271   1.66774   1.66956   1.69619
 Alpha virt. eigenvalues --    1.70592   1.71586   1.72566   1.72983   1.74349
 Alpha virt. eigenvalues --    1.75357   1.76137   1.77538   1.78512   1.80158
 Alpha virt. eigenvalues --    1.80838   1.82108   1.82780   1.85400   1.88166
 Alpha virt. eigenvalues --    1.89438   1.90352   1.91403   1.91493   1.93797
 Alpha virt. eigenvalues --    1.95451   1.96239   1.97541   1.98494   2.00384
 Alpha virt. eigenvalues --    2.03732   2.04677   2.06577   2.07281   2.08986
 Alpha virt. eigenvalues --    2.09418   2.10398   2.11480   2.12014   2.12284
 Alpha virt. eigenvalues --    2.13016   2.14047   2.14419   2.15210   2.15891
 Alpha virt. eigenvalues --    2.16256   2.17292   2.17893   2.18823   2.19810
 Alpha virt. eigenvalues --    2.20662   2.21287   2.22642   2.22724   2.24053
 Alpha virt. eigenvalues --    2.24277   2.25310   2.25717   2.26046   2.27292
 Alpha virt. eigenvalues --    2.28270   2.29377   2.30863   2.31652   2.32760
 Alpha virt. eigenvalues --    2.33057   2.33913   2.34041   2.34961   2.36012
 Alpha virt. eigenvalues --    2.36949   2.37153   2.37400   2.39049   2.39256
 Alpha virt. eigenvalues --    2.39824   2.41726   2.42708   2.43650   2.44334
 Alpha virt. eigenvalues --    2.45755   2.47168   2.48084   2.49232   2.50190
 Alpha virt. eigenvalues --    2.51583   2.52333   2.53726   2.54791   2.55986
 Alpha virt. eigenvalues --    2.56446   2.57217   2.59149   2.59399   2.61066
 Alpha virt. eigenvalues --    2.63097   2.63301   2.64021   2.64936   2.66356
 Alpha virt. eigenvalues --    2.67740   2.68853   2.70007   2.71143   2.72714
 Alpha virt. eigenvalues --    2.73034   2.74252   2.74683   2.75377   2.75829
 Alpha virt. eigenvalues --    2.76200   2.77787   2.78894   2.79605   2.80625
 Alpha virt. eigenvalues --    2.81162   2.82489   2.84726   2.85929   2.86303
 Alpha virt. eigenvalues --    2.87824   2.88162   2.91150   2.91709   2.94381
 Alpha virt. eigenvalues --    2.95765   2.97980   2.98369   2.99154   3.02133
 Alpha virt. eigenvalues --    3.03319   3.04839   3.05391   3.06317   3.07015
 Alpha virt. eigenvalues --    3.10990   3.11078   3.12481   3.13194   3.15684
 Alpha virt. eigenvalues --    3.16865   3.18352   3.21979   3.26840   3.30530
 Alpha virt. eigenvalues --    3.34333   3.35802   3.39187   3.40440   3.41158
 Alpha virt. eigenvalues --    3.42645   3.43602   3.52600   3.55648   3.57530
 Alpha virt. eigenvalues --    3.59882   4.38359   4.39241   4.45035   4.49110
 Alpha virt. eigenvalues --    4.51833   4.51960   4.53572   4.56877   4.61463
 Alpha virt. eigenvalues --    4.63784   4.66170   4.66839   4.68177   4.70116
 Alpha virt. eigenvalues --    4.71620   4.75806   4.78478   4.83439   4.83866
 Alpha virt. eigenvalues --    4.89267   4.90790   4.93800   4.94408   4.98793
 Alpha virt. eigenvalues --    5.01349   5.06402   5.22855   5.23544
          Condensed to atoms (all electrons):
 Mulliken atomic charges:
              1
     1  C   -0.281285
     2  N   -0.793657
     3  C    0.818908
     4  O   -0.614399
     5  C    0.061849
     6  C   -0.454714
     7  C   -0.301518
     8  C   -0.316741
     9  C   -0.373863
    10  C   -0.176132
    11  C   -0.176312
    12  C   -0.353826
    13  C   -0.310831
    14  C   -0.328957
    15  C    0.091151
    16  C   -0.509513
    17  N   -0.787608
    18  C    0.767227
    19  C   -0.595720
    20  O   -0.613973
    21  C    0.820553
    22  O   -0.638953
    23  N   -0.806230
    24  C   -0.275515
    25  N   -0.831278
    26  C    0.752729
    27  C   -0.587559
    28  O   -0.587656
    29  H    0.179724
    30  H    0.207269
    31  H    0.167037
    32  H    0.375543
    33  H    0.186747
    34  H    0.182889
    35  H    0.204958
    36  H    0.175852
    37  H    0.152134
    38  H    0.163644
    39  H    0.183331
    40  H    0.207726
    41  H    0.175699
    42  H    0.172936
    43  H    0.168583
    44  H    0.178610
    45  H    0.160733
    46  H    0.151761
    47  H    0.199303
    48  H    0.173328
    49  H    0.184096
    50  H    0.183686
    51  H    0.147748
    52  H    0.226757
    53  H    0.389984
    54  H    0.211253
    55  H    0.209673
    56  H    0.176487
    57  H    0.395168
    58  H    0.164290
    59  H    0.199667
    60  H    0.185376
    61  H    0.370814
    62  H    0.220289
    63  H    0.173662
    64  H    0.197066
 Sum of Mulliken atomic charges =   0.00000
 Mulliken charges with hydrogens summed into heavy atoms:
              1
     1  C    0.272745
     2  N   -0.418114
     3  C    0.818908
     4  O   -0.614399
     5  C    0.061849
     6  C    0.119880
     7  C    0.026467
     8  C    0.030234
     9  C    0.009562
    10  C   -0.003196
    11  C   -0.007729
    12  C   -0.014483
    13  C    0.040233
    14  C    0.028467
    15  C    0.091151
    16  C    0.048678
    17  N   -0.397624
    18  C    0.767227
    19  C    0.001693
    20  O   -0.613973
    21  C    0.820553
    22  O   -0.638953
    23  N   -0.411062
    24  C    0.273818
    25  N   -0.460464
    26  C    0.752729
    27  C    0.003458
    28  O   -0.587656
 Sum of Mulliken charges with hydrogens summed into heavy atoms =   0.00000
 Electronic spatial extent (au):  <R**2>=          22312.9882
 Charge=              0.0000 electrons
 Dipole moment (field-independent basis, Debye):
    X=             -1.6223    Y=             -1.4035    Z=              7.7047  Tot=              7.9977
 Quadrupole moment (field-independent basis, Debye-Ang):
   XX=           -212.5790   YY=           -156.4235   ZZ=           -171.5222
   XY=             -7.3569   XZ=            -26.7209   YZ=             10.1206
 Traceless Quadrupole moment (field-independent basis, Debye-Ang):
   XX=            -32.4041   YY=             23.7514   ZZ=              8.6527
   XY=             -7.3569   XZ=            -26.7209   YZ=             10.1206
 Octapole moment (field-independent basis, Debye-Ang**2):
  XXX=           -107.4135  YYY=             44.6067  ZZZ=             17.8793  XYY=             64.0281
  XXY=            -53.0154  XXZ=            225.2775  XZZ=             -9.9494  YZZ=             -2.1076
  YYZ=             10.7983  XYZ=             19.2568
 Hexadecapole moment (field-independent basis, Debye-Ang**3):
 XXXX=         -29268.0335 YYYY=          -2356.6182 ZZZZ=          -1315.1011 XXXY=           -736.4557
 XXXZ=          -1509.2488 YYYX=             68.4768 YYYZ=             32.3267 ZZZX=            -54.8108
 ZZZY=             30.2993 XXYY=          -4234.8006 XXZZ=          -4367.8244 YYZZ=           -637.3847
 XXYZ=            118.5870 YYXZ=           -104.6099 ZZXY=             26.2652
 N-N= 2.673308753408D+03 E-N=-8.378540038427D+03  KE= 1.294137068298D+03
 1\1\GINC-MOSURA\SP\RHF\6-31G(d)\C20H36N4O4\MARIE\05-Dec-2019\0\\#SP HF
 /6-31G* Geom=(ModRedundant)\\paramfit run\\0,1\C,0,0.,0.,0.\N,0,1.4481
 87,0.,0.\C,0,2.1232,0.47592,1.072365\O,0,1.590179,0.696732,2.124447\C,
 0,3.650505,0.594143,0.921539\C,0,4.198902,1.549248,1.986845\C,0,4.3077
 51,-0.809116,1.023981\C,0,4.133566,-1.622781,2.319066\C,0,2.832729,-2.
 433298,2.484965\C,0,2.579342,-3.423586,1.372579\C,0,2.834093,-4.721989
 ,1.375535\C,0,3.442731,-5.535663,2.492337\C,0,2.42774,-6.370218,3.2941
 33\C,0,1.693892,-7.402618,2.427801\C,0,0.774274,-8.428536,3.139447\C,0
 ,0.118887,-9.296969,2.053288\N,0,1.59533,-9.267679,4.001559\C,0,1.0367
 79,-10.167772,4.862321\C,0,1.96438,-10.678762,5.940862\O,0,-0.103289,-
 10.530888,4.775526\C,0,-0.228361,-7.657085,4.027316\O,0,0.090004,-7.29
 6707,5.128542\N,0,-1.416619,-7.323616,3.478843\C,0,-2.421442,-6.64525,
 4.271531\N,0,3.997412,1.070275,-0.425452\C,0,4.848132,2.108747,-0.6652
 93\C,0,5.348597,2.213737,-2.090997\O,0,5.169288,2.890751,0.184099\H,0,
 -0.403259,1.006147,0.\H,0,-0.36496,-0.516002,0.875939\H,0,-0.345658,-0
 .522086,-0.883346\H,0,1.904244,0.070913,-0.879357\H,0,3.932135,1.22176
 ,2.980082\H,0,5.28092,1.595925,1.9075\H,0,3.792711,2.540594,1.848395\H
 ,0,5.374584,-0.64325,0.891407\H,0,3.984642,-1.403324,0.174983\H,0,4.96
 1565,-2.324757,2.354635\H,0,4.250121,-0.975721,3.182259\H,0,1.985724,-
 1.764045,2.562723\H,0,2.895638,-2.94811,3.437249\H,0,2.135502,-3.00918
 1,0.481856\H,0,2.579482,-5.276386,0.485828\H,0,3.971519,-4.889909,3.18
 2881\H,0,4.191817,-6.202016,2.066382\H,0,2.965623,-6.85691,4.102952\H,
 0,1.714584,-5.707921,3.766998\H,0,2.42081,-7.979938,1.860503\H,0,1.083
 167,-6.875737,1.704087\H,0,0.891187,-9.872528,1.556434\H,0,-0.36551,-8
 .684705,1.299714\H,0,-0.597925,-9.98679,2.472891\H,0,2.435807,-8.84784
 ,4.327205\H,0,1.585188,-11.616367,6.31792\H,0,1.981002,-9.957975,6.752
 844\H,0,2.97817,-10.810647,5.57862\H,0,-1.730263,-7.831365,2.685667\H,
 0,-3.24021,-6.362494,3.623002\H,0,-1.998054,-5.755067,4.713054\H,0,-2.
 799425,-7.276973,5.068907\H,0,3.899356,0.400793,-1.156018\H,0,5.670133
 ,3.228615,-2.274328\H,0,4.590419,1.93422,-2.813898\H,0,6.199892,1.5529
 32,-2.219197\\Version=EM64L-G09RevA.02\State=1-A\HF=-1295.5975451\RMSD
 =6.725e-09\Dipole=0.553853,-0.6549999,-3.0273723\Quadrupole=11.1144371
 ,-27.8385213,16.7240842,-15.8591837,7.1199546,-7.5300802\PG=C01 [X(C20
 H36N4O4)]\\@


 THE REAL VOYAGE OF DISCOVERY CONSISTS NOT IN SEEKING NEW LANDSCAPES 
 BUT IN HAVING NEW EYES.
                                                    -- MARCEL PROUST
 Job cpu time:  0 days  0 hours  5 minutes  8.7 seconds.
 File lengths (MBytes):  RWF=    132 Int=      0 D2E=      0 Chk=     10 Scr=      1
 Normal termination of Gaussian 09 at Thu Dec  5 16:36:03 2019.
