 Entering Gaussian System, Link 0=g09
 Input=PHI_-110.gau
 Output=PHI_-110.log
 Initial command:
 /home/marie/Utilities//g09/l1.exe /tmp/g09/Gau-4411.inp -scrdir=/tmp/g09/
 Entering Link 1 = /home/marie/Utilities//g09/l1.exe PID=      4413.
  
 Copyright (c) 1988,1990,1992,1993,1995,1998,2003,2009, Gaussian, Inc.
                  All Rights Reserved.
  
 This is part of the Gaussian(R) 09 program.  It is based on
 the Gaussian(R) 03 system (copyright 2003, Gaussian, Inc.),
 the Gaussian(R) 98 system (copyright 1998, Gaussian, Inc.),
 the Gaussian(R) 94 system (copyright 1995, Gaussian, Inc.),
 the Gaussian 92(TM) system (copyright 1992, Gaussian, Inc.),
 the Gaussian 90(TM) system (copyright 1990, Gaussian, Inc.),
 the Gaussian 88(TM) system (copyright 1988, Gaussian, Inc.),
 the Gaussian 86(TM) system (copyright 1986, Carnegie Mellon
 University), and the Gaussian 82(TM) system (copyright 1983,
 Carnegie Mellon University). Gaussian is a federally registered
 trademark of Gaussian, Inc.
  
 This software contains proprietary and confidential information,
 including trade secrets, belonging to Gaussian, Inc.
  
 This software is provided under written license and may be
 used, copied, transmitted, or stored only in accord with that
 written license.
  
 The following legend is applicable only to US Government
 contracts under FAR:
  
                    RESTRICTED RIGHTS LEGEND
  
 Use, reproduction and disclosure by the US Government is
 subject to restrictions as set forth in subparagraphs (a)
 and (c) of the Commercial Computer Software - Restricted
 Rights clause in FAR 52.227-19.
  
 Gaussian, Inc.
 340 Quinnipiac St., Bldg. 40, Wallingford CT 06492
  
  
 ---------------------------------------------------------------
 Warning -- This program may not be used in any manner that
 competes with the business of Gaussian, Inc. or will provide
 assistance to any competitor of Gaussian, Inc.  The licensee
 of this program is prohibited from giving any competitor of
 Gaussian, Inc. access to this program.  By using this program,
 the user acknowledges that Gaussian, Inc. is engaged in the
 business of creating and licensing software in the field of
 computational chemistry and represents and warrants to the
 licensee that it is not a competitor of Gaussian, Inc. and that
 it will not use this program in any manner prohibited above.
 ---------------------------------------------------------------
  

 Cite this work as:
 Gaussian 09, Revision A.02,
 M. J. Frisch, G. W. Trucks, H. B. Schlegel, G. E. Scuseria, 
 M. A. Robb, J. R. Cheeseman, G. Scalmani, V. Barone, B. Mennucci, 
 G. A. Petersson, H. Nakatsuji, M. Caricato, X. Li, H. P. Hratchian, 
 A. F. Izmaylov, J. Bloino, G. Zheng, J. L. Sonnenberg, M. Hada, 
 M. Ehara, K. Toyota, R. Fukuda, J. Hasegawa, M. Ishida, T. Nakajima, 
 Y. Honda, O. Kitao, H. Nakai, T. Vreven, J. A. Montgomery, Jr., 
 J. E. Peralta, F. Ogliaro, M. Bearpark, J. J. Heyd, E. Brothers, 
 K. N. Kudin, V. N. Staroverov, R. Kobayashi, J. Normand, 
 K. Raghavachari, A. Rendell, J. C. Burant, S. S. Iyengar, J. Tomasi, 
 M. Cossi, N. Rega, J. M. Millam, M. Klene, J. E. Knox, J. B. Cross, 
 V. Bakken, C. Adamo, J. Jaramillo, R. Gomperts, R. E. Stratmann, 
 O. Yazyev, A. J. Austin, R. Cammi, C. Pomelli, J. W. Ochterski, 
 R. L. Martin, K. Morokuma, V. G. Zakrzewski, G. A. Voth, 
 P. Salvador, J. J. Dannenberg, S. Dapprich, A. D. Daniels, 
 O. Farkas, J. B. Foresman, J. V. Ortiz, J. Cioslowski, 
 and D. J. Fox, Gaussian, Inc., Wallingford CT, 2009.
 
 ******************************************
 Gaussian 09:  EM64L-G09RevA.02 11-Jun-2009
                 5-Dec-2019 
 ******************************************
 %chk=PHI_-110
 %NoSave
 ---------------------------------
 #SP HF/6-31G* Geom=(ModRedundant)
 ---------------------------------
 1/18=120,38=1/1;
 2/12=2,17=6,18=5,40=1/2;
 3/5=1,6=6,7=1,11=9,16=1,25=1,30=1/1,2,3;
 4//1;
 5/5=2,38=5/2;
 6/7=2,8=2,9=2,10=2,28=1/1;
 99/5=1,9=1/99;
 ------------
 paramfit run
 ------------
 Symbolic Z-matrix:
 Charge =  0 Multiplicity = 1
 C-CT--0.3208          0.        0.        0. 
 N-N--0.5622           1.44819   0.        0. 
 C-C-0.8053            2.1232    0.47592   1.07237 
 O-O--0.6151           1.59018   0.69673   2.12445 
 C-CX-0.0839           3.65051   0.59414   0.92154 
 C-CU--0.3230          4.1989    1.54925   1.98685 
 C-CU--0.0657          4.30775  -0.80912   1.02398 
 C-CU--0.0109          4.13357  -1.62278   2.31907 
 C-CU-0.0816           2.83273  -2.4333    2.48497 
 C-CM--0.2354          2.57934  -3.42359   1.37258 
 C-CM--0.2653          2.83409  -4.72199   1.37554 
 C-CU-0.1214           3.44273  -5.53566   2.49234 
 C-CU--0.0354          2.42774  -6.37022   3.29413 
 C-CU--0.0984          1.69389  -7.40262   2.4278 
 C-CU-0.1300           0.77427  -8.42854   3.13945 
 C-CU--0.3561          0.11889  -9.29697   2.05329 
 N-N--0.7186           1.59533  -9.26768   4.00156 
 C-C-0.8537            1.03678  -10.16777   4.86232 
 C-CT--0.3868          1.96438  -10.67876   5.94086 
 O-O--0.6323          -0.10329  -10.53089   4.77553 
 C-C-0.7903           -0.22836  -7.65709   4.02732 
 O-O--0.6136           0.09     -7.29671   5.12854 
 N-N--0.5650          -1.41662  -7.32362   3.47884 
 C-CT--0.3231         -2.42144  -6.64525   4.27153 
 N-N--0.7191           3.99741   1.07028  -0.42545 
 C-C-0.8539            4.59664   0.29269  -1.372 
 C-CT--0.3903          4.54601   0.84287  -2.78227 
 O-O--0.6290           5.13579  -0.74492  -1.10966 
 H-H1-0.1459          -0.40326   1.00615   0. 
 H-H1-0.1459          -0.36496  -0.516     0.87594 
 H-H1-0.1459          -0.34566  -0.52209  -0.88335 
 H-H-0.3572            1.90424   0.07091  -0.87936 
 H-HC-0.0997           3.93214   1.22176   2.98008 
 H-HC-0.0997           5.28092   1.59593   1.9075 
 H-HC-0.0997           3.79271   2.54059   1.8484 
 H-HC-0.0347           5.37458  -0.64325   0.89141 
 H-HC-0.0347           3.98464  -1.40332   0.17498 
 H-HC-0.0243           4.96157  -2.32476   2.35464 
 H-HC-0.0243           4.25012  -0.97572   3.18226 
 H-HC-0.0171           1.98572  -1.76405   2.56272 
 H-HC-0.0171           2.89564  -2.94811   3.43725 
 H-HA-0.1313           2.1355   -3.00918   0.48186 
 H-HA-0.1359           2.57948  -5.27639   0.48583 
 H-HC-0.0092           3.97152  -4.88991   3.18288 
 H-HC-0.0092           4.19182  -6.20202   2.06638 
 H-HC-0.0318           2.96562  -6.85691   4.10295 
 H-HC-0.0318           1.71458  -5.70792   3.767 
 H-HC-0.0435           2.42081  -7.97994   1.8605 
 H-HC-0.0435           1.08317  -6.87574   1.70409 
 H-HC-0.1066           0.89119  -9.87253   1.55643 
 H-HC-0.1066          -0.36551  -8.68471   1.29971 
 H-HC-0.1066          -0.59793  -9.98679   2.47289 
 H-H-0.3529            2.43581  -8.84784   4.32721 
 H-HC-0.1047           1.58519  -11.61637   6.31792 
 H-HC-0.1047           1.981    -9.95798   6.75284 
 H-HC-0.1047           2.97817  -10.81065   5.57862 
 H-H-0.3615           -1.73026  -7.83136   2.68567 
 H-H1-0.1469          -3.24021  -6.36249   3.623 
 H-H1-0.1469          -1.99805  -5.75507   4.71305 
 H-H1-0.1469          -2.79943  -7.27697   5.06891 
 H-H-0.3570            3.46231   1.8407   -0.7596 
 H-HC-0.1060           5.34173   0.3959   -3.36021 
 H-HC-0.1060           4.63962   1.92281  -2.80526 
 H-HC-0.1060           3.59701   0.57468  -3.23534 
 
 The following ModRedundant input section has been read:
 D    *    5   25    * F                                                       
 Stoichiometry    C20H36N4O4
 Framework group  C1[X(C20H36N4O4)]
 Deg. of freedom   186
 Full point group                 C1      NOp   1
 Largest Abelian subgroup         C1      NOp   1
 Largest concise Abelian subgroup C1      NOp   1
                         Standard orientation:                         
 ---------------------------------------------------------------------
 Center     Atomic      Atomic             Coordinates (Angstroms)
 Number     Number       Type             X           Y           Z
 ---------------------------------------------------------------------
      1          6    20001001       -3.824992    3.073299    1.060069
      2          7    20001014       -4.238543    1.731656    0.704802
      3          6    20001002       -4.427199    1.405440   -0.595237
      4          8    20001024       -4.055731    2.104963   -1.496582
      5          6    90000001       -5.025851    0.014454   -0.871208
      6          6    90000002       -5.600186   -0.024437   -2.291232
      7          6    90000002       -3.946174   -1.082474   -0.664690
      8          6    90000002       -2.677236   -1.054950   -1.535710
      9          6    90000002       -1.531906   -0.118823   -1.101519
     10          6    20001004       -1.029500   -0.371466    0.300636
     11          6    20001004        0.034420   -1.070126    0.662166
     12          6    90000002        1.009941   -1.789354   -0.238291
     13          6    90000002        2.343907   -1.049868   -0.446283
     14          6    90000002        3.116786   -0.842719    0.863168
     15          6    90000002        4.555537   -0.270709    0.776890
     16          6    90000002        5.076453   -0.104309    2.213695
     17          7    20001014        5.392847   -1.226548    0.064980
     18          6    20001002        6.676897   -0.926175   -0.287226
     19          6    20001001        7.281627   -1.837581   -1.330512
     20          8    20001024        7.286001   -0.009944    0.190953
     21          6    20001002        4.515189    1.040417   -0.040451
     22          8    20001024        4.540737    1.006891   -1.241347
     23          7    20001014        4.347905    2.193973    0.641682
     24          6    20001001        4.352283    3.462445   -0.057721
     25          7    20001014       -6.069270   -0.299712    0.115710
     26          6    20001002       -5.931354   -1.246377    1.087552
     27          6    20001001       -6.950817   -1.173483    2.205362
     28          8    20001024       -5.075060   -2.084213    1.057030
     29          1    20001035       -4.589755    3.805680    0.828324
     30          1    20001035       -2.926180    3.333121    0.520298
     31          1    20001035       -3.615927    3.100741    2.122091
     32          1    20001029       -4.775459    1.228309    1.371621
     33          1    20001034       -4.848303    0.225797   -3.024027
     34          1    20001034       -5.981093   -1.019781   -2.499646
     35          1    20001034       -6.405433    0.688673   -2.391122
     36          1    20001034       -4.447844   -2.027672   -0.860004
     37          1    20001034       -3.667012   -1.097495    0.384177
     38          1    20001034       -2.285834   -2.068064   -1.540568
     39          1    20001034       -2.938072   -0.828011   -2.564222
     40          1    20001034       -1.844845    0.913907   -1.184602
     41          1    20001034       -0.726396   -0.245753   -1.816274
     42          1    20001033       -1.614292    0.079995    1.085693
     43          1    20001033        0.243250   -1.139323    1.718274
     44          1    20001034        0.564858   -1.965622   -1.210040
     45          1    20001034        1.211829   -2.772358    0.185428
     46          1    20001034        2.932958   -1.624115   -1.155955
     47          1    20001034        2.153692   -0.095935   -0.920267
     48          1    20001034        3.191741   -1.790495    1.391974
     49          1    20001034        2.546746   -0.176386    1.499882
     50          1    20001034        5.164519   -1.084999    2.666542
     51          1    20001034        4.383963    0.471834    2.818591
     52          1    20001034        6.048892    0.364420    2.233560
     53          1    20001029        4.913306   -1.816174   -0.576186
     54          1    20001034        8.357675   -1.775127   -1.273234
     55          1    20001034        6.964779   -1.497950   -2.312033
     56          1    20001034        6.965482   -2.867535   -1.205492
     57          1    20001029        4.570632    2.207751    1.608901
     58          1    20001035        4.084619    4.243535    0.641690
     59          1    20001035        3.625930    3.440930   -0.856830
     60          1    20001035        5.325224    3.683584   -0.484613
     61          1    20001029       -6.721207    0.430426    0.298530
     62          1    20001034       -7.013671   -2.139802    2.684163
     63          1    20001034       -7.931011   -0.877883    1.848446
     64          1    20001034       -6.622854   -0.444618    2.939527
 ---------------------------------------------------------------------
 Rotational constants (GHZ):      0.3531283      0.0536348      0.0514550
 Standard basis: 6-31G(d) (6D, 7F)
 There are   492 symmetry adapted basis functions of A   symmetry.
 Integral buffers will be    131072 words long.
 Raffenetti 1 integral format.
 Two-electron integral symmetry is turned on.
   492 basis functions,   928 primitive gaussians,   492 cartesian basis functions
   108 alpha electrons      108 beta electrons
       nuclear repulsion energy      2708.2670590026 Hartrees.
 NAtoms=   64 NActive=   64 NUniq=   64 SFac= 7.50D-01 NAtFMM=   80 NAOKFM=F Big=T
 One-electron integrals computed using PRISM.
 NBasis=   492 RedAO= T  NBF=   492
 NBsUse=   492 1.00D-06 NBFU=   492
 Harris functional with IExCor=  205 diagonalized for initial guess.
 ExpMin= 1.61D-01 ExpMax= 5.48D+03 ExpMxC= 8.25D+02 IAcc=1 IRadAn=         1 AccDes= 0.00D+00
 HarFok:  IExCor=  205 AccDes= 0.00D+00 IRadAn=         1 IDoV= 1
 ScaDFX=  1.000000  1.000000  1.000000  1.000000
 FoFCou: FMM=F IPFlag=           0 FMFlag=      100000 FMFlg1=           1
         NFxFlg=           0 DoJE=T BraDBF=F KetDBF=T FulRan=T
         Omega=  0.000000  0.000000  1.000000  0.000000  0.000000 ICntrl=     500 IOpCl=  0
         NMat0=    1 NMatS0=    1 NMatT0=    0 NMatD0=    1 NMtDS0=    0 NMtDT0=    0
         I1Cent=           4 NGrid=           0.
 Petite list used in FoFCou.
 Initial guess orbital symmetries:
       Occupied  (A) (A) (A) (A) (A) (A) (A) (A) (A) (A) (A) (A)
                 (A) (A) (A) (A) (A) (A) (A) (A) (A) (A) (A) (A)
                 (A) (A) (A) (A) (A) (A) (A) (A) (A) (A) (A) (A)
                 (A) (A) (A) (A) (A) (A) (A) (A) (A) (A) (A) (A)
                 (A) (A) (A) (A) (A) (A) (A) (A) (A) (A) (A) (A)
                 (A) (A) (A) (A) (A) (A) (A) (A) (A) (A) (A) (A)
                 (A) (A) (A) (A) (A) (A) (A) (A) (A) (A) (A) (A)
                 (A) (A) (A) (A) (A) (A) (A) (A) (A) (A) (A) (A)
                 (A) (A) (A) (A) (A) (A) (A) (A) (A) (A) (A) (A)
       Virtual   (A) (A) (A) (A) (A) (A) (A) (A) (A) (A) (A) (A)
                 (A) (A) (A) (A) (A) (A) (A) (A) (A) (A) (A) (A)
                 (A) (A) (A) (A) (A) (A) (A) (A) (A) (A) (A) (A)
                 (A) (A) (A) (A) (A) (A) (A) (A) (A) (A) (A) (A)
                 (A) (A) (A) (A) (A) (A) (A) (A) (A) (A) (A) (A)
                 (A) (A) (A) (A) (A) (A) (A) (A) (A) (A) (A) (A)
                 (A) (A) (A) (A) (A) (A) (A) (A) (A) (A) (A) (A)
                 (A) (A) (A) (A) (A) (A) (A) (A) (A) (A) (A) (A)
                 (A) (A) (A) (A) (A) (A) (A) (A) (A) (A) (A) (A)
                 (A) (A) (A) (A) (A) (A) (A) (A) (A) (A) (A) (A)
                 (A) (A) (A) (A) (A) (A) (A) (A) (A) (A) (A) (A)
                 (A) (A) (A) (A) (A) (A) (A) (A) (A) (A) (A) (A)
                 (A) (A) (A) (A) (A) (A) (A) (A) (A) (A) (A) (A)
                 (A) (A) (A) (A) (A) (A) (A) (A) (A) (A) (A) (A)
                 (A) (A) (A) (A) (A) (A) (A) (A) (A) (A) (A) (A)
                 (A) (A) (A) (A) (A) (A) (A) (A) (A) (A) (A) (A)
                 (A) (A) (A) (A) (A) (A) (A) (A) (A) (A) (A) (A)
                 (A) (A) (A) (A) (A) (A) (A) (A) (A) (A) (A) (A)
                 (A) (A) (A) (A) (A) (A) (A) (A) (A) (A) (A) (A)
                 (A) (A) (A) (A) (A) (A) (A) (A) (A) (A) (A) (A)
                 (A) (A) (A) (A) (A) (A) (A) (A) (A) (A) (A) (A)
                 (A) (A) (A) (A) (A) (A) (A) (A) (A) (A) (A) (A)
                 (A) (A) (A) (A) (A) (A) (A) (A) (A) (A) (A) (A)
                 (A) (A) (A) (A) (A) (A) (A) (A) (A) (A) (A) (A)
                 (A) (A) (A) (A) (A) (A) (A) (A) (A) (A) (A) (A)
                 (A) (A) (A) (A) (A) (A) (A) (A) (A) (A) (A) (A)
                 (A) (A) (A) (A) (A) (A) (A) (A) (A) (A) (A) (A)
                 (A) (A) (A) (A) (A) (A) (A) (A) (A) (A) (A) (A)
                 (A) (A) (A) (A) (A) (A) (A) (A) (A) (A) (A) (A)
                 (A) (A) (A) (A) (A) (A) (A) (A) (A) (A) (A) (A)
                 (A) (A) (A) (A) (A) (A) (A) (A) (A) (A) (A) (A)
                 (A) (A) (A) (A) (A) (A) (A) (A) (A) (A) (A) (A)
 The electronic state of the initial guess is 1-A.
 Requested convergence on RMS density matrix=1.00D-08 within 128 cycles.
 Requested convergence on MAX density matrix=1.00D-06.
 Requested convergence on             energy=1.00D-06.
 No special actions if energy rises.
 Integral accuracy reduced to 1.0D-05 until final iterations.
 Initial convergence to 1.0D-05 achieved.  Increase integral accuracy.
 SCF Done:  E(RHF) =  -1295.57676895     A.U. after   14 cycles
             Convg  =    0.6759D-08             -V/T =  2.0010

 **********************************************************************

            Population analysis using the SCF density.

 **********************************************************************

 Orbital symmetries:
       Occupied  (A) (A) (A) (A) (A) (A) (A) (A) (A) (A) (A) (A)
                 (A) (A) (A) (A) (A) (A) (A) (A) (A) (A) (A) (A)
                 (A) (A) (A) (A) (A) (A) (A) (A) (A) (A) (A) (A)
                 (A) (A) (A) (A) (A) (A) (A) (A) (A) (A) (A) (A)
                 (A) (A) (A) (A) (A) (A) (A) (A) (A) (A) (A) (A)
                 (A) (A) (A) (A) (A) (A) (A) (A) (A) (A) (A) (A)
                 (A) (A) (A) (A) (A) (A) (A) (A) (A) (A) (A) (A)
                 (A) (A) (A) (A) (A) (A) (A) (A) (A) (A) (A) (A)
                 (A) (A) (A) (A) (A) (A) (A) (A) (A) (A) (A) (A)
       Virtual   (A) (A) (A) (A) (A) (A) (A) (A) (A) (A) (A) (A)
                 (A) (A) (A) (A) (A) (A) (A) (A) (A) (A) (A) (A)
                 (A) (A) (A) (A) (A) (A) (A) (A) (A) (A) (A) (A)
                 (A) (A) (A) (A) (A) (A) (A) (A) (A) (A) (A) (A)
                 (A) (A) (A) (A) (A) (A) (A) (A) (A) (A) (A) (A)
                 (A) (A) (A) (A) (A) (A) (A) (A) (A) (A) (A) (A)
                 (A) (A) (A) (A) (A) (A) (A) (A) (A) (A) (A) (A)
                 (A) (A) (A) (A) (A) (A) (A) (A) (A) (A) (A) (A)
                 (A) (A) (A) (A) (A) (A) (A) (A) (A) (A) (A) (A)
                 (A) (A) (A) (A) (A) (A) (A) (A) (A) (A) (A) (A)
                 (A) (A) (A) (A) (A) (A) (A) (A) (A) (A) (A) (A)
                 (A) (A) (A) (A) (A) (A) (A) (A) (A) (A) (A) (A)
                 (A) (A) (A) (A) (A) (A) (A) (A) (A) (A) (A) (A)
                 (A) (A) (A) (A) (A) (A) (A) (A) (A) (A) (A) (A)
                 (A) (A) (A) (A) (A) (A) (A) (A) (A) (A) (A) (A)
                 (A) (A) (A) (A) (A) (A) (A) (A) (A) (A) (A) (A)
                 (A) (A) (A) (A) (A) (A) (A) (A) (A) (A) (A) (A)
                 (A) (A) (A) (A) (A) (A) (A) (A) (A) (A) (A) (A)
                 (A) (A) (A) (A) (A) (A) (A) (A) (A) (A) (A) (A)
                 (A) (A) (A) (A) (A) (A) (A) (A) (A) (A) (A) (A)
                 (A) (A) (A) (A) (A) (A) (A) (A) (A) (A) (A) (A)
                 (A) (A) (A) (A) (A) (A) (A) (A) (A) (A) (A) (A)
                 (A) (A) (A) (A) (A) (A) (A) (A) (A) (A) (A) (A)
                 (A) (A) (A) (A) (A) (A) (A) (A) (A) (A) (A) (A)
                 (A) (A) (A) (A) (A) (A) (A) (A) (A) (A) (A) (A)
                 (A) (A) (A) (A) (A) (A) (A) (A) (A) (A) (A) (A)
                 (A) (A) (A) (A) (A) (A) (A) (A) (A) (A) (A) (A)
                 (A) (A) (A) (A) (A) (A) (A) (A) (A) (A) (A) (A)
                 (A) (A) (A) (A) (A) (A) (A) (A) (A) (A) (A) (A)
                 (A) (A) (A) (A) (A) (A) (A) (A) (A) (A) (A) (A)
                 (A) (A) (A) (A) (A) (A) (A) (A) (A) (A) (A) (A)
                 (A) (A) (A) (A) (A) (A) (A) (A) (A) (A) (A) (A)
 The electronic state is 1-A.
 Alpha  occ. eigenvalues --  -20.53203 -20.52794 -20.51776 -20.51315 -15.60060
 Alpha  occ. eigenvalues --  -15.59393 -15.57668 -15.57205 -11.36388 -11.34785
 Alpha  occ. eigenvalues --  -11.33980 -11.33400 -11.28873 -11.28219 -11.26500
 Alpha  occ. eigenvalues --  -11.24830 -11.24746 -11.22928 -11.22260 -11.21792
 Alpha  occ. eigenvalues --  -11.21732 -11.21507 -11.21325 -11.21291 -11.21115
 Alpha  occ. eigenvalues --  -11.20626 -11.20500 -11.20341  -1.41238  -1.40090
 Alpha  occ. eigenvalues --   -1.39091  -1.37819  -1.26083  -1.23427  -1.23231
 Alpha  occ. eigenvalues --   -1.22379  -1.09890  -1.08682  -1.06796  -1.03623
 Alpha  occ. eigenvalues --   -1.00747  -0.99263  -0.98452  -0.96854  -0.94692
 Alpha  occ. eigenvalues --   -0.93932  -0.91267  -0.86943  -0.85476  -0.82555
 Alpha  occ. eigenvalues --   -0.80601  -0.79992  -0.79177  -0.77387  -0.76608
 Alpha  occ. eigenvalues --   -0.73496  -0.71305  -0.70359  -0.68812  -0.67618
 Alpha  occ. eigenvalues --   -0.66412  -0.66025  -0.64450  -0.63776  -0.63736
 Alpha  occ. eigenvalues --   -0.63138  -0.62421  -0.61381  -0.61203  -0.61042
 Alpha  occ. eigenvalues --   -0.60812  -0.60454  -0.59115  -0.58674  -0.58344
 Alpha  occ. eigenvalues --   -0.57845  -0.57097  -0.56115  -0.55996  -0.55880
 Alpha  occ. eigenvalues --   -0.55841  -0.55059  -0.54587  -0.54377  -0.53522
 Alpha  occ. eigenvalues --   -0.53089  -0.52727  -0.52651  -0.52162  -0.51681
 Alpha  occ. eigenvalues --   -0.50856  -0.49960  -0.49486  -0.48675  -0.47823
 Alpha  occ. eigenvalues --   -0.47162  -0.46178  -0.45881  -0.44124  -0.43712
 Alpha  occ. eigenvalues --   -0.41206  -0.40788  -0.40034  -0.38758  -0.38568
 Alpha  occ. eigenvalues --   -0.38446  -0.38013  -0.33472
 Alpha virt. eigenvalues --    0.17260   0.17806   0.18428   0.19579   0.19953
 Alpha virt. eigenvalues --    0.21893   0.22320   0.23239   0.23616   0.24501
 Alpha virt. eigenvalues --    0.25643   0.26055   0.26240   0.27119   0.27800
 Alpha virt. eigenvalues --    0.28150   0.28438   0.28726   0.29166   0.29614
 Alpha virt. eigenvalues --    0.29933   0.30867   0.31138   0.31436   0.31739
 Alpha virt. eigenvalues --    0.31816   0.32339   0.32800   0.33784   0.33962
 Alpha virt. eigenvalues --    0.34436   0.34733   0.35205   0.35519   0.35752
 Alpha virt. eigenvalues --    0.35888   0.36885   0.37096   0.37830   0.38320
 Alpha virt. eigenvalues --    0.38788   0.39523   0.39771   0.39903   0.40685
 Alpha virt. eigenvalues --    0.41542   0.41653   0.42729   0.42958   0.44019
 Alpha virt. eigenvalues --    0.45078   0.45506   0.46004   0.46418   0.47116
 Alpha virt. eigenvalues --    0.47966   0.48973   0.49466   0.52511   0.52758
 Alpha virt. eigenvalues --    0.54306   0.55989   0.58073   0.59252   0.60090
 Alpha virt. eigenvalues --    0.61385   0.62740   0.64641   0.69410   0.70644
 Alpha virt. eigenvalues --    0.71332   0.71898   0.72794   0.72905   0.73480
 Alpha virt. eigenvalues --    0.73961   0.75216   0.76006   0.76245   0.76601
 Alpha virt. eigenvalues --    0.77000   0.77242   0.78407   0.78866   0.79413
 Alpha virt. eigenvalues --    0.80129   0.80316   0.81010   0.81069   0.82061
 Alpha virt. eigenvalues --    0.83784   0.84507   0.84861   0.85797   0.86691
 Alpha virt. eigenvalues --    0.88022   0.88495   0.88783   0.89704   0.90500
 Alpha virt. eigenvalues --    0.91514   0.92058   0.92718   0.92895   0.93729
 Alpha virt. eigenvalues --    0.94515   0.95328   0.96768   0.97360   0.98458
 Alpha virt. eigenvalues --    0.99154   0.99448   1.00245   1.00801   1.00926
 Alpha virt. eigenvalues --    1.01409   1.02698   1.02832   1.03423   1.04361
 Alpha virt. eigenvalues --    1.04780   1.04945   1.06749   1.06881   1.07692
 Alpha virt. eigenvalues --    1.07888   1.08579   1.09983   1.10584   1.10815
 Alpha virt. eigenvalues --    1.12238   1.13103   1.13519   1.14011   1.14613
 Alpha virt. eigenvalues --    1.14936   1.15146   1.15372   1.15585   1.15737
 Alpha virt. eigenvalues --    1.16708   1.16957   1.17265   1.17765   1.18177
 Alpha virt. eigenvalues --    1.18616   1.18846   1.19049   1.19445   1.19528
 Alpha virt. eigenvalues --    1.19917   1.20491   1.20720   1.21186   1.21520
 Alpha virt. eigenvalues --    1.22150   1.22301   1.22576   1.22891   1.23162
 Alpha virt. eigenvalues --    1.23792   1.24009   1.24358   1.24925   1.26196
 Alpha virt. eigenvalues --    1.26768   1.28088   1.28594   1.29314   1.29436
 Alpha virt. eigenvalues --    1.30034   1.31361   1.31606   1.32013   1.32843
 Alpha virt. eigenvalues --    1.33979   1.35508   1.36228   1.36716   1.37835
 Alpha virt. eigenvalues --    1.39127   1.40097   1.41394   1.42649   1.44161
 Alpha virt. eigenvalues --    1.45670   1.46716   1.48158   1.48387   1.49276
 Alpha virt. eigenvalues --    1.51122   1.51593   1.52262   1.54653   1.55716
 Alpha virt. eigenvalues --    1.56906   1.58541   1.59044   1.61113   1.62006
 Alpha virt. eigenvalues --    1.62881   1.65262   1.65756   1.68024   1.69633
 Alpha virt. eigenvalues --    1.70720   1.72174   1.72504   1.72594   1.73695
 Alpha virt. eigenvalues --    1.75048   1.75350   1.77504   1.79018   1.80769
 Alpha virt. eigenvalues --    1.81633   1.83403   1.83640   1.87097   1.87910
 Alpha virt. eigenvalues --    1.89938   1.90294   1.91765   1.92394   1.94794
 Alpha virt. eigenvalues --    1.96354   1.98065   1.98753   1.99928   2.01011
 Alpha virt. eigenvalues --    2.04407   2.05028   2.07128   2.07696   2.09208
 Alpha virt. eigenvalues --    2.10030   2.10518   2.12048   2.12543   2.12839
 Alpha virt. eigenvalues --    2.13069   2.13907   2.14697   2.15616   2.16600
 Alpha virt. eigenvalues --    2.17276   2.18291   2.18806   2.19513   2.20525
 Alpha virt. eigenvalues --    2.21423   2.22311   2.23129   2.23672   2.24353
 Alpha virt. eigenvalues --    2.25588   2.25950   2.26302   2.27236   2.27947
 Alpha virt. eigenvalues --    2.29248   2.29470   2.30660   2.32093   2.33033
 Alpha virt. eigenvalues --    2.33207   2.34380   2.35036   2.35875   2.36581
 Alpha virt. eigenvalues --    2.37131   2.37569   2.38544   2.38962   2.39690
 Alpha virt. eigenvalues --    2.40853   2.42475   2.43194   2.44074   2.45540
 Alpha virt. eigenvalues --    2.46444   2.47703   2.48172   2.49697   2.51293
 Alpha virt. eigenvalues --    2.52269   2.53060   2.54583   2.54986   2.55547
 Alpha virt. eigenvalues --    2.56760   2.57614   2.59698   2.60348   2.61983
 Alpha virt. eigenvalues --    2.62868   2.63041   2.63614   2.64840   2.65504
 Alpha virt. eigenvalues --    2.69048   2.69508   2.70652   2.71344   2.72960
 Alpha virt. eigenvalues --    2.73583   2.74450   2.75066   2.75297   2.76328
 Alpha virt. eigenvalues --    2.77354   2.78102   2.79030   2.79627   2.80854
 Alpha virt. eigenvalues --    2.82643   2.82803   2.84941   2.85875   2.86675
 Alpha virt. eigenvalues --    2.88630   2.89828   2.90658   2.92475   2.93514
 Alpha virt. eigenvalues --    2.96147   2.98436   2.99895   3.00687   3.03484
 Alpha virt. eigenvalues --    3.03842   3.05283   3.05887   3.07826   3.08319
 Alpha virt. eigenvalues --    3.09651   3.11348   3.12098   3.13544   3.16213
 Alpha virt. eigenvalues --    3.18934   3.19295   3.23011   3.27176   3.30903
 Alpha virt. eigenvalues --    3.34686   3.36727   3.39189   3.40827   3.42112
 Alpha virt. eigenvalues --    3.42758   3.42992   3.53265   3.55997   3.57877
 Alpha virt. eigenvalues --    3.59869   4.38675   4.38754   4.46990   4.49486
 Alpha virt. eigenvalues --    4.52178   4.52602   4.54870   4.57589   4.61894
 Alpha virt. eigenvalues --    4.64102   4.66342   4.67018   4.67988   4.70187
 Alpha virt. eigenvalues --    4.70804   4.76105   4.78954   4.84005   4.84413
 Alpha virt. eigenvalues --    4.89759   4.90716   4.94249   4.95502   5.00025
 Alpha virt. eigenvalues --    5.02113   5.08880   5.23907   5.25435
          Condensed to atoms (all electrons):
 Mulliken atomic charges:
              1
     1  C   -0.283066
     2  N   -0.779831
     3  C    0.776992
     4  O   -0.615440
     5  C    0.080694
     6  C   -0.446752
     7  C   -0.320919
     8  C   -0.304141
     9  C   -0.372299
    10  C   -0.167239
    11  C   -0.178226
    12  C   -0.352581
    13  C   -0.310672
    14  C   -0.328396
    15  C    0.090788
    16  C   -0.509459
    17  N   -0.787499
    18  C    0.767289
    19  C   -0.595616
    20  O   -0.614796
    21  C    0.820839
    22  O   -0.639370
    23  N   -0.806020
    24  C   -0.274988
    25  N   -0.825432
    26  C    0.731469
    27  C   -0.584311
    28  O   -0.585344
    29  H    0.172343
    30  H    0.211119
    31  H    0.171034
    32  H    0.379587
    33  H    0.204012
    34  H    0.169218
    35  H    0.157493
    36  H    0.202843
    37  H    0.215838
    38  H    0.164775
    39  H    0.159057
    40  H    0.197245
    41  H    0.169699
    42  H    0.172874
    43  H    0.166960
    44  H    0.178585
    45  H    0.160583
    46  H    0.149447
    47  H    0.197646
    48  H    0.173713
    49  H    0.184347
    50  H    0.183838
    51  H    0.147785
    52  H    0.225461
    53  H    0.390427
    54  H    0.210339
    55  H    0.209273
    56  H    0.176758
    57  H    0.394953
    58  H    0.163390
    59  H    0.199438
    60  H    0.184527
    61  H    0.374717
    62  H    0.223115
    63  H    0.185930
    64  H    0.185957
 Sum of Mulliken atomic charges =   0.00000
 Mulliken charges with hydrogens summed into heavy atoms:
              1
     1  C    0.271431
     2  N   -0.400243
     3  C    0.776992
     4  O   -0.615440
     5  C    0.080694
     6  C    0.083970
     7  C    0.097761
     8  C    0.019691
     9  C   -0.005355
    10  C    0.005635
    11  C   -0.011265
    12  C   -0.013413
    13  C    0.036421
    14  C    0.029664
    15  C    0.090788
    16  C    0.047625
    17  N   -0.397072
    18  C    0.767289
    19  C    0.000753
    20  O   -0.614796
    21  C    0.820839
    22  O   -0.639370
    23  N   -0.411067
    24  C    0.272367
    25  N   -0.450715
    26  C    0.731469
    27  C    0.010691
    28  O   -0.585344
 Sum of Mulliken charges with hydrogens summed into heavy atoms =   0.00000
 Electronic spatial extent (au):  <R**2>=          20695.7894
 Charge=              0.0000 electrons
 Dipole moment (field-independent basis, Debye):
    X=             -6.0967    Y=              0.3506    Z=              4.7141  Tot=              7.7146
 Quadrupole moment (field-independent basis, Debye-Ang):
   XX=           -162.5414   YY=           -168.3192   ZZ=           -169.1462
   XY=            -17.9045   XZ=            -12.4324   YZ=             17.6268
 Traceless Quadrupole moment (field-independent basis, Debye-Ang):
   XX=              4.1275   YY=             -1.6503   ZZ=             -2.4773
   XY=            -17.9045   XZ=            -12.4324   YZ=             17.6268
 Octapole moment (field-independent basis, Debye-Ang**2):
  XXX=           -558.3391  YYY=             50.0237  ZZZ=             23.5781  XYY=             88.1384
  XXY=            -23.6321  XXZ=             91.0486  XZZ=             -2.2533  YZZ=             -4.0321
  YYZ=             15.2903  XYZ=             -2.8376
 Hexadecapole moment (field-independent basis, Debye-Ang**3):
 XXXX=         -22818.5774 YYYY=          -2526.6093 ZZZZ=          -1618.5491 XXXY=           -749.0341
 XXXZ=           -878.2177 YYYX=             47.1202 YYYZ=             74.4176 ZZZX=            -75.2475
 ZZZY=             25.4385 XXYY=          -4094.2401 XXZZ=          -3930.7550 YYZZ=           -715.9401
 XXYZ=            327.9979 YYXZ=            -60.3595 ZZXY=             34.6323
 N-N= 2.708267059003D+03 E-N=-8.449129549596D+03  KE= 1.294265710192D+03
 1\1\GINC-MOSURA\SP\RHF\6-31G(d)\C20H36N4O4\MARIE\05-Dec-2019\0\\#SP HF
 /6-31G* Geom=(ModRedundant)\\paramfit run\\0,1\C,0,0.,0.,0.\N,0,1.4481
 87,0.,0.\C,0,2.1232,0.47592,1.072365\O,0,1.590179,0.696732,2.124447\C,
 0,3.650505,0.594143,0.921539\C,0,4.198902,1.549248,1.986845\C,0,4.3077
 51,-0.809116,1.023981\C,0,4.133566,-1.622781,2.319066\C,0,2.832729,-2.
 433298,2.484965\C,0,2.579342,-3.423586,1.372579\C,0,2.834093,-4.721989
 ,1.375535\C,0,3.442731,-5.535663,2.492337\C,0,2.42774,-6.370218,3.2941
 33\C,0,1.693892,-7.402618,2.427801\C,0,0.774274,-8.428536,3.139447\C,0
 ,0.118887,-9.296969,2.053288\N,0,1.59533,-9.267679,4.001559\C,0,1.0367
 79,-10.167772,4.862321\C,0,1.96438,-10.678762,5.940862\O,0,-0.103289,-
 10.530888,4.775526\C,0,-0.228361,-7.657085,4.027316\O,0,0.090004,-7.29
 6707,5.128542\N,0,-1.416619,-7.323616,3.478843\C,0,-2.421442,-6.64525,
 4.271531\N,0,3.997412,1.070275,-0.425452\C,0,4.596636,0.292685,-1.3720
 02\C,0,4.546008,0.842874,-2.782267\O,0,5.135793,-0.74492,-1.109657\H,0
 ,-0.403259,1.006147,0.\H,0,-0.36496,-0.516002,0.875939\H,0,-0.345658,-
 0.522086,-0.883346\H,0,1.904244,0.070913,-0.879357\H,0,3.932135,1.2217
 6,2.980082\H,0,5.28092,1.595925,1.9075\H,0,3.792711,2.540594,1.848395\
 H,0,5.374584,-0.64325,0.891407\H,0,3.984642,-1.403324,0.174983\H,0,4.9
 61565,-2.324757,2.354635\H,0,4.250121,-0.975721,3.182259\H,0,1.985724,
 -1.764045,2.562723\H,0,2.895638,-2.94811,3.437249\H,0,2.135502,-3.0091
 81,0.481856\H,0,2.579482,-5.276386,0.485828\H,0,3.971519,-4.889909,3.1
 82881\H,0,4.191817,-6.202016,2.066382\H,0,2.965623,-6.85691,4.102952\H
 ,0,1.714584,-5.707921,3.766998\H,0,2.42081,-7.979938,1.860503\H,0,1.08
 3167,-6.875737,1.704087\H,0,0.891187,-9.872528,1.556434\H,0,-0.36551,-
 8.684705,1.299714\H,0,-0.597925,-9.98679,2.472891\H,0,2.435807,-8.8478
 4,4.327205\H,0,1.585188,-11.616367,6.31792\H,0,1.981002,-9.957975,6.75
 2844\H,0,2.97817,-10.810647,5.57862\H,0,-1.730263,-7.831365,2.685667\H
 ,0,-3.24021,-6.362494,3.623002\H,0,-1.998054,-5.755067,4.713054\H,0,-2
 .799425,-7.276973,5.068907\H,0,3.462312,1.840704,-0.759598\H,0,5.34172
 5,0.395897,-3.360211\H,0,4.639623,1.922808,-2.80526\H,0,3.597008,0.574
 684,-3.235338\\Version=EM64L-G09RevA.02\State=1-A\HF=-1295.576769\RMSD
 =6.759e-09\Dipole=0.1021863,1.5373377,-2.6150213\Quadrupole=-3.2952116
 ,1.9097187,1.3854929,-8.4131612,13.840417,-13.0760979\PG=C01 [X(C20H36
 N4O4)]\\@


 TIME IS NATURE'S WAY OF MAKING SURE EVERYTHING
 DOESN'T HAPPEN AT ONCE.
                     - WOODY ALLEN
 Job cpu time:  0 days  0 hours  5 minutes 23.5 seconds.
 File lengths (MBytes):  RWF=    132 Int=      0 D2E=      0 Chk=     10 Scr=      1
 Normal termination of Gaussian 09 at Thu Dec  5 16:37:11 2019.
