 Entering Gaussian System, Link 0=g09
 Input=PHI_100.gau
 Output=PHI_100.log
 Initial command:
 /home/marie/Utilities//g09/l1.exe /tmp/g09/Gau-3559.inp -scrdir=/tmp/g09/
 Entering Link 1 = /home/marie/Utilities//g09/l1.exe PID=      3561.
  
 Copyright (c) 1988,1990,1992,1993,1995,1998,2003,2009, Gaussian, Inc.
                  All Rights Reserved.
  
 This is part of the Gaussian(R) 09 program.  It is based on
 the Gaussian(R) 03 system (copyright 2003, Gaussian, Inc.),
 the Gaussian(R) 98 system (copyright 1998, Gaussian, Inc.),
 the Gaussian(R) 94 system (copyright 1995, Gaussian, Inc.),
 the Gaussian 92(TM) system (copyright 1992, Gaussian, Inc.),
 the Gaussian 90(TM) system (copyright 1990, Gaussian, Inc.),
 the Gaussian 88(TM) system (copyright 1988, Gaussian, Inc.),
 the Gaussian 86(TM) system (copyright 1986, Carnegie Mellon
 University), and the Gaussian 82(TM) system (copyright 1983,
 Carnegie Mellon University). Gaussian is a federally registered
 trademark of Gaussian, Inc.
  
 This software contains proprietary and confidential information,
 including trade secrets, belonging to Gaussian, Inc.
  
 This software is provided under written license and may be
 used, copied, transmitted, or stored only in accord with that
 written license.
  
 The following legend is applicable only to US Government
 contracts under FAR:
  
                    RESTRICTED RIGHTS LEGEND
  
 Use, reproduction and disclosure by the US Government is
 subject to restrictions as set forth in subparagraphs (a)
 and (c) of the Commercial Computer Software - Restricted
 Rights clause in FAR 52.227-19.
  
 Gaussian, Inc.
 340 Quinnipiac St., Bldg. 40, Wallingford CT 06492
  
  
 ---------------------------------------------------------------
 Warning -- This program may not be used in any manner that
 competes with the business of Gaussian, Inc. or will provide
 assistance to any competitor of Gaussian, Inc.  The licensee
 of this program is prohibited from giving any competitor of
 Gaussian, Inc. access to this program.  By using this program,
 the user acknowledges that Gaussian, Inc. is engaged in the
 business of creating and licensing software in the field of
 computational chemistry and represents and warrants to the
 licensee that it is not a competitor of Gaussian, Inc. and that
 it will not use this program in any manner prohibited above.
 ---------------------------------------------------------------
  

 Cite this work as:
 Gaussian 09, Revision A.02,
 M. J. Frisch, G. W. Trucks, H. B. Schlegel, G. E. Scuseria, 
 M. A. Robb, J. R. Cheeseman, G. Scalmani, V. Barone, B. Mennucci, 
 G. A. Petersson, H. Nakatsuji, M. Caricato, X. Li, H. P. Hratchian, 
 A. F. Izmaylov, J. Bloino, G. Zheng, J. L. Sonnenberg, M. Hada, 
 M. Ehara, K. Toyota, R. Fukuda, J. Hasegawa, M. Ishida, T. Nakajima, 
 Y. Honda, O. Kitao, H. Nakai, T. Vreven, J. A. Montgomery, Jr., 
 J. E. Peralta, F. Ogliaro, M. Bearpark, J. J. Heyd, E. Brothers, 
 K. N. Kudin, V. N. Staroverov, R. Kobayashi, J. Normand, 
 K. Raghavachari, A. Rendell, J. C. Burant, S. S. Iyengar, J. Tomasi, 
 M. Cossi, N. Rega, J. M. Millam, M. Klene, J. E. Knox, J. B. Cross, 
 V. Bakken, C. Adamo, J. Jaramillo, R. Gomperts, R. E. Stratmann, 
 O. Yazyev, A. J. Austin, R. Cammi, C. Pomelli, J. W. Ochterski, 
 R. L. Martin, K. Morokuma, V. G. Zakrzewski, G. A. Voth, 
 P. Salvador, J. J. Dannenberg, S. Dapprich, A. D. Daniels, 
 O. Farkas, J. B. Foresman, J. V. Ortiz, J. Cioslowski, 
 and D. J. Fox, Gaussian, Inc., Wallingford CT, 2009.
 
 ******************************************
 Gaussian 09:  EM64L-G09RevA.02 11-Jun-2009
                 5-Dec-2019 
 ******************************************
 %chk=PHI_100
 %NoSave
 ---------------------------------
 #SP HF/6-31G* Geom=(ModRedundant)
 ---------------------------------
 1/18=120,38=1/1;
 2/12=2,17=6,18=5,40=1/2;
 3/5=1,6=6,7=1,11=9,16=1,25=1,30=1/1,2,3;
 4//1;
 5/5=2,38=5/2;
 6/7=2,8=2,9=2,10=2,28=1/1;
 99/5=1,9=1/99;
 ------------
 paramfit run
 ------------
 Symbolic Z-matrix:
 Charge =  0 Multiplicity = 1
 C-CT--0.3208          0.        0.        0. 
 N-N--0.5622           1.44819   0.        0. 
 C-C-0.8053            2.1232    0.47592   1.07237 
 O-O--0.6151           1.59018   0.69673   2.12445 
 C-CX-0.0839           3.65051   0.59414   0.92154 
 C-CU--0.3230          4.1989    1.54925   1.98685 
 C-CU--0.0657          4.30775  -0.80912   1.02398 
 C-CU--0.0109          4.13357  -1.62278   2.31907 
 C-CU-0.0816           2.83273  -2.4333    2.48497 
 C-CM--0.2354          2.57934  -3.42359   1.37258 
 C-CM--0.2653          2.83409  -4.72199   1.37554 
 C-CU-0.1214           3.44273  -5.53566   2.49234 
 C-CU--0.0354          2.42774  -6.37022   3.29413 
 C-CU--0.0984          1.69389  -7.40262   2.4278 
 C-CU-0.1300           0.77427  -8.42854   3.13945 
 C-CU--0.3561          0.11889  -9.29697   2.05329 
 N-N--0.7186           1.59533  -9.26768   4.00156 
 C-C-0.8537            1.03678  -10.16777   4.86232 
 C-CT--0.3868          1.96438  -10.67876   5.94086 
 O-O--0.6323          -0.10329  -10.53089   4.77553 
 C-C-0.7903           -0.22836  -7.65709   4.02732 
 O-O--0.6136           0.09     -7.29671   5.12854 
 N-N--0.5650          -1.41662  -7.32362   3.47884 
 C-CT--0.3231         -2.42144  -6.64525   4.27153 
 N-N--0.7191           3.99741   1.07028  -0.42545 
 C-C-0.8539            4.32119   2.36388  -0.71082 
 C-CT--0.3903          4.98348   2.57913  -2.05587 
 O-O--0.6290           4.08934   3.26896   0.03966 
 H-H1-0.1459          -0.40326   1.00615   0. 
 H-H1-0.1459          -0.36496  -0.516     0.87594 
 H-H1-0.1459          -0.34566  -0.52209  -0.88335 
 H-H-0.3572            1.90424   0.07091  -0.87936 
 H-HC-0.0997           3.93214   1.22176   2.98008 
 H-HC-0.0997           5.28092   1.59593   1.9075 
 H-HC-0.0997           3.79271   2.54059   1.8484 
 H-HC-0.0347           5.37458  -0.64325   0.89141 
 H-HC-0.0347           3.98464  -1.40332   0.17498 
 H-HC-0.0243           4.96157  -2.32476   2.35464 
 H-HC-0.0243           4.25012  -0.97572   3.18226 
 H-HC-0.0171           1.98572  -1.76405   2.56272 
 H-HC-0.0171           2.89564  -2.94811   3.43725 
 H-HA-0.1313           2.1355   -3.00918   0.48186 
 H-HA-0.1359           2.57948  -5.27639   0.48583 
 H-HC-0.0092           3.97152  -4.88991   3.18288 
 H-HC-0.0092           4.19182  -6.20202   2.06638 
 H-HC-0.0318           2.96562  -6.85691   4.10295 
 H-HC-0.0318           1.71458  -5.70792   3.767 
 H-HC-0.0435           2.42081  -7.97994   1.8605 
 H-HC-0.0435           1.08317  -6.87574   1.70409 
 H-HC-0.1066           0.89119  -9.87253   1.55643 
 H-HC-0.1066          -0.36551  -8.68471   1.29971 
 H-HC-0.1066          -0.59793  -9.98679   2.47289 
 H-H-0.3529            2.43581  -8.84784   4.32721 
 H-HC-0.1047           1.58519  -11.61637   6.31792 
 H-HC-0.1047           1.981    -9.95798   6.75284 
 H-HC-0.1047           2.97817  -10.81065   5.57862 
 H-H-0.3615           -1.73026  -7.83136   2.68567 
 H-H1-0.1469          -3.24021  -6.36249   3.623 
 H-H1-0.1469          -1.99805  -5.75507   4.71305 
 H-H1-0.1469          -2.79943  -7.27697   5.06891 
 H-H-0.3570            4.35106   0.37801  -1.04774 
 H-HC-0.1060           4.8448    3.60855  -2.35259 
 H-HC-0.1060           4.5844    1.9215   -2.81994 
 H-HC-0.1060           6.04749   2.38624  -1.96389 
 
 The following ModRedundant input section has been read:
 D    *    5   25    * F                                                       
 Stoichiometry    C20H36N4O4
 Framework group  C1[X(C20H36N4O4)]
 Deg. of freedom   186
 Full point group                 C1      NOp   1
 Largest Abelian subgroup         C1      NOp   1
 Largest concise Abelian subgroup C1      NOp   1
                         Standard orientation:                         
 ---------------------------------------------------------------------
 Center     Atomic      Atomic             Coordinates (Angstroms)
 Number     Number       Type             X           Y           Z
 ---------------------------------------------------------------------
      1          6    20001001       -3.655662    3.065653    0.770760
      2          7    20001014       -4.046219    1.672250    0.714737
      3          6    20001002       -4.279916    1.084310   -0.481850
      4          8    20001024       -3.966061    1.592164   -1.522679
      5          6    90000001       -4.850652   -0.344687   -0.441679
      6          6    90000002       -5.482550   -0.683082   -1.795945
      7          6    90000002       -3.733186   -1.356035   -0.067449
      8          6    90000002       -2.503031   -1.482947   -0.984100
      9          6    90000002       -1.367037   -0.456667   -0.802709
     10          6    20001004       -0.799614   -0.408619    0.596577
     11          6    20001004        0.297517   -0.998824    1.042357
     12          6    90000002        1.254169   -1.868161    0.262086
     13          6    90000002        2.557183   -1.161775   -0.153534
     14          6    90000002        3.378070   -0.677518    1.049193
     15          6    90000002        4.795485   -0.108277    0.781717
     16          6    90000002        5.371185    0.357346    2.129016
     17          7    20001014        5.628566   -1.173351    0.240306
     18          6    20001002        6.887914   -0.927117   -0.224955
     19          6    20001001        7.473618   -2.020629   -1.088660
     20          8    20001024        7.490752    0.078616    0.028482
     21          6    20001002        4.684540    1.007636   -0.281841
     22          8    20001024        4.660780    0.730413   -1.450819
     23          7    20001014        4.513894    2.272714    0.159111
     24          6    20001001        4.453735    3.371764   -0.782522
     25          7    20001014       -5.842752   -0.470485    0.635978
     26          6    20001002       -7.190432   -0.421111    0.433512
     27          6    20001001       -8.032877   -0.919774    1.589256
     28          8    20001024       -7.677211   -0.003013   -0.578604
     29          1    20001035       -4.449524    3.720933    0.431141
     30          1    20001035       -2.787780    3.226732    0.148220
     31          1    20001035       -3.403222    3.312996    1.794209
     32          1    20001029       -4.540576    1.305491    1.494087
     33          1    20001034       -4.769214   -0.573500   -2.598489
     34          1    20001034       -5.843998   -1.706967   -1.780109
     35          1    20001034       -6.310796   -0.020535   -2.000801
     36          1    20001034       -4.216092   -2.330427   -0.043347
     37          1    20001034       -3.410106   -1.151624    0.948482
     38          1    20001034       -2.084140   -2.468251   -0.801549
     39          1    20001034       -2.812852   -1.475437   -2.023969
     40          1    20001034       -1.711786    0.531374   -1.078910
     41          1    20001034       -0.588894   -0.711573   -1.513589
     42          1    20001033       -1.363405    0.182411    1.300094
     43          1    20001033        0.552162   -0.847282    2.079638
     44          1    20001034        0.773924   -2.247189   -0.631876
     45          1    20001034        1.500865   -2.740147    0.866548
     46          1    20001034        3.131796   -1.857538   -0.758604
     47          1    20001034        2.320852   -0.328275   -0.801805
     48          1    20001034        3.501407   -1.495972    1.755208
     49          1    20001034        2.816832    0.093857    1.563336
     50          1    20001034        5.505357   -0.508568    2.766801
     51          1    20001034        4.688830    1.031660    2.636040
     52          1    20001034        6.330187    0.838405    2.008038
     53          1    20001029        5.139228   -1.890210   -0.244847
     54          1    20001034        8.548967   -1.927665   -1.095447
     55          1    20001034        7.106685   -1.894282   -2.102821
     56          1    20001034        7.191753   -3.009184   -0.742691
     57          1    20001029        4.776395    2.487607    1.091969
     58          1    20001035        4.193920    4.273912   -0.244427
     59          1    20001035        3.695488    3.174148   -1.525916
     60          1    20001035        5.401448    3.519387   -1.290263
     61          1    20001029       -5.534872   -0.956999    1.448420
     62          1    20001034       -9.022812   -0.494932    1.508556
     63          1    20001034       -7.602690   -0.664260    2.551129
     64          1    20001034       -8.114595   -2.000346    1.530208
 ---------------------------------------------------------------------
 Rotational constants (GHZ):      0.4162987      0.0484933      0.0466026
 Standard basis: 6-31G(d) (6D, 7F)
 There are   492 symmetry adapted basis functions of A   symmetry.
 Integral buffers will be    131072 words long.
 Raffenetti 1 integral format.
 Two-electron integral symmetry is turned on.
   492 basis functions,   928 primitive gaussians,   492 cartesian basis functions
   108 alpha electrons      108 beta electrons
       nuclear repulsion energy      2673.9117980397 Hartrees.
 NAtoms=   64 NActive=   64 NUniq=   64 SFac= 7.50D-01 NAtFMM=   80 NAOKFM=F Big=T
 One-electron integrals computed using PRISM.
 NBasis=   492 RedAO= T  NBF=   492
 NBsUse=   492 1.00D-06 NBFU=   492
 Harris functional with IExCor=  205 diagonalized for initial guess.
 ExpMin= 1.61D-01 ExpMax= 5.48D+03 ExpMxC= 8.25D+02 IAcc=1 IRadAn=         1 AccDes= 0.00D+00
 HarFok:  IExCor=  205 AccDes= 0.00D+00 IRadAn=         1 IDoV= 1
 ScaDFX=  1.000000  1.000000  1.000000  1.000000
 FoFCou: FMM=F IPFlag=           0 FMFlag=      100000 FMFlg1=           1
         NFxFlg=           0 DoJE=T BraDBF=F KetDBF=T FulRan=T
         Omega=  0.000000  0.000000  1.000000  0.000000  0.000000 ICntrl=     500 IOpCl=  0
         NMat0=    1 NMatS0=    1 NMatT0=    0 NMatD0=    1 NMtDS0=    0 NMtDT0=    0
         I1Cent=           4 NGrid=           0.
 Petite list used in FoFCou.
 Initial guess orbital symmetries:
       Occupied  (A) (A) (A) (A) (A) (A) (A) (A) (A) (A) (A) (A)
                 (A) (A) (A) (A) (A) (A) (A) (A) (A) (A) (A) (A)
                 (A) (A) (A) (A) (A) (A) (A) (A) (A) (A) (A) (A)
                 (A) (A) (A) (A) (A) (A) (A) (A) (A) (A) (A) (A)
                 (A) (A) (A) (A) (A) (A) (A) (A) (A) (A) (A) (A)
                 (A) (A) (A) (A) (A) (A) (A) (A) (A) (A) (A) (A)
                 (A) (A) (A) (A) (A) (A) (A) (A) (A) (A) (A) (A)
                 (A) (A) (A) (A) (A) (A) (A) (A) (A) (A) (A) (A)
                 (A) (A) (A) (A) (A) (A) (A) (A) (A) (A) (A) (A)
       Virtual   (A) (A) (A) (A) (A) (A) (A) (A) (A) (A) (A) (A)
                 (A) (A) (A) (A) (A) (A) (A) (A) (A) (A) (A) (A)
                 (A) (A) (A) (A) (A) (A) (A) (A) (A) (A) (A) (A)
                 (A) (A) (A) (A) (A) (A) (A) (A) (A) (A) (A) (A)
                 (A) (A) (A) (A) (A) (A) (A) (A) (A) (A) (A) (A)
                 (A) (A) (A) (A) (A) (A) (A) (A) (A) (A) (A) (A)
                 (A) (A) (A) (A) (A) (A) (A) (A) (A) (A) (A) (A)
                 (A) (A) (A) (A) (A) (A) (A) (A) (A) (A) (A) (A)
                 (A) (A) (A) (A) (A) (A) (A) (A) (A) (A) (A) (A)
                 (A) (A) (A) (A) (A) (A) (A) (A) (A) (A) (A) (A)
                 (A) (A) (A) (A) (A) (A) (A) (A) (A) (A) (A) (A)
                 (A) (A) (A) (A) (A) (A) (A) (A) (A) (A) (A) (A)
                 (A) (A) (A) (A) (A) (A) (A) (A) (A) (A) (A) (A)
                 (A) (A) (A) (A) (A) (A) (A) (A) (A) (A) (A) (A)
                 (A) (A) (A) (A) (A) (A) (A) (A) (A) (A) (A) (A)
                 (A) (A) (A) (A) (A) (A) (A) (A) (A) (A) (A) (A)
                 (A) (A) (A) (A) (A) (A) (A) (A) (A) (A) (A) (A)
                 (A) (A) (A) (A) (A) (A) (A) (A) (A) (A) (A) (A)
                 (A) (A) (A) (A) (A) (A) (A) (A) (A) (A) (A) (A)
                 (A) (A) (A) (A) (A) (A) (A) (A) (A) (A) (A) (A)
                 (A) (A) (A) (A) (A) (A) (A) (A) (A) (A) (A) (A)
                 (A) (A) (A) (A) (A) (A) (A) (A) (A) (A) (A) (A)
                 (A) (A) (A) (A) (A) (A) (A) (A) (A) (A) (A) (A)
                 (A) (A) (A) (A) (A) (A) (A) (A) (A) (A) (A) (A)
                 (A) (A) (A) (A) (A) (A) (A) (A) (A) (A) (A) (A)
                 (A) (A) (A) (A) (A) (A) (A) (A) (A) (A) (A) (A)
                 (A) (A) (A) (A) (A) (A) (A) (A) (A) (A) (A) (A)
                 (A) (A) (A) (A) (A) (A) (A) (A) (A) (A) (A) (A)
                 (A) (A) (A) (A) (A) (A) (A) (A) (A) (A) (A) (A)
                 (A) (A) (A) (A) (A) (A) (A) (A) (A) (A) (A) (A)
                 (A) (A) (A) (A) (A) (A) (A) (A) (A) (A) (A) (A)
                 (A) (A) (A) (A) (A) (A) (A) (A) (A) (A) (A) (A)
 The electronic state of the initial guess is 1-A.
 Requested convergence on RMS density matrix=1.00D-08 within 128 cycles.
 Requested convergence on MAX density matrix=1.00D-06.
 Requested convergence on             energy=1.00D-06.
 No special actions if energy rises.
 Integral accuracy reduced to 1.0D-05 until final iterations.
 Initial convergence to 1.0D-05 achieved.  Increase integral accuracy.
 SCF Done:  E(RHF) =  -1295.60725807     A.U. after   14 cycles
             Convg  =    0.6880D-08             -V/T =  2.0012

 **********************************************************************

            Population analysis using the SCF density.

 **********************************************************************

 Orbital symmetries:
       Occupied  (A) (A) (A) (A) (A) (A) (A) (A) (A) (A) (A) (A)
                 (A) (A) (A) (A) (A) (A) (A) (A) (A) (A) (A) (A)
                 (A) (A) (A) (A) (A) (A) (A) (A) (A) (A) (A) (A)
                 (A) (A) (A) (A) (A) (A) (A) (A) (A) (A) (A) (A)
                 (A) (A) (A) (A) (A) (A) (A) (A) (A) (A) (A) (A)
                 (A) (A) (A) (A) (A) (A) (A) (A) (A) (A) (A) (A)
                 (A) (A) (A) (A) (A) (A) (A) (A) (A) (A) (A) (A)
                 (A) (A) (A) (A) (A) (A) (A) (A) (A) (A) (A) (A)
                 (A) (A) (A) (A) (A) (A) (A) (A) (A) (A) (A) (A)
       Virtual   (A) (A) (A) (A) (A) (A) (A) (A) (A) (A) (A) (A)
                 (A) (A) (A) (A) (A) (A) (A) (A) (A) (A) (A) (A)
                 (A) (A) (A) (A) (A) (A) (A) (A) (A) (A) (A) (A)
                 (A) (A) (A) (A) (A) (A) (A) (A) (A) (A) (A) (A)
                 (A) (A) (A) (A) (A) (A) (A) (A) (A) (A) (A) (A)
                 (A) (A) (A) (A) (A) (A) (A) (A) (A) (A) (A) (A)
                 (A) (A) (A) (A) (A) (A) (A) (A) (A) (A) (A) (A)
                 (A) (A) (A) (A) (A) (A) (A) (A) (A) (A) (A) (A)
                 (A) (A) (A) (A) (A) (A) (A) (A) (A) (A) (A) (A)
                 (A) (A) (A) (A) (A) (A) (A) (A) (A) (A) (A) (A)
                 (A) (A) (A) (A) (A) (A) (A) (A) (A) (A) (A) (A)
                 (A) (A) (A) (A) (A) (A) (A) (A) (A) (A) (A) (A)
                 (A) (A) (A) (A) (A) (A) (A) (A) (A) (A) (A) (A)
                 (A) (A) (A) (A) (A) (A) (A) (A) (A) (A) (A) (A)
                 (A) (A) (A) (A) (A) (A) (A) (A) (A) (A) (A) (A)
                 (A) (A) (A) (A) (A) (A) (A) (A) (A) (A) (A) (A)
                 (A) (A) (A) (A) (A) (A) (A) (A) (A) (A) (A) (A)
                 (A) (A) (A) (A) (A) (A) (A) (A) (A) (A) (A) (A)
                 (A) (A) (A) (A) (A) (A) (A) (A) (A) (A) (A) (A)
                 (A) (A) (A) (A) (A) (A) (A) (A) (A) (A) (A) (A)
                 (A) (A) (A) (A) (A) (A) (A) (A) (A) (A) (A) (A)
                 (A) (A) (A) (A) (A) (A) (A) (A) (A) (A) (A) (A)
                 (A) (A) (A) (A) (A) (A) (A) (A) (A) (A) (A) (A)
                 (A) (A) (A) (A) (A) (A) (A) (A) (A) (A) (A) (A)
                 (A) (A) (A) (A) (A) (A) (A) (A) (A) (A) (A) (A)
                 (A) (A) (A) (A) (A) (A) (A) (A) (A) (A) (A) (A)
                 (A) (A) (A) (A) (A) (A) (A) (A) (A) (A) (A) (A)
                 (A) (A) (A) (A) (A) (A) (A) (A) (A) (A) (A) (A)
                 (A) (A) (A) (A) (A) (A) (A) (A) (A) (A) (A) (A)
                 (A) (A) (A) (A) (A) (A) (A) (A) (A) (A) (A) (A)
                 (A) (A) (A) (A) (A) (A) (A) (A) (A) (A) (A) (A)
                 (A) (A) (A) (A) (A) (A) (A) (A) (A) (A) (A) (A)
 The electronic state is 1-A.
 Alpha  occ. eigenvalues --  -20.52970 -20.52397 -20.52095 -20.51651 -15.59570
 Alpha  occ. eigenvalues --  -15.58398 -15.57966 -15.57575 -11.35862 -11.34301
 Alpha  occ. eigenvalues --  -11.34037 -11.33739 -11.28867 -11.28632 -11.25738
 Alpha  occ. eigenvalues --  -11.25048 -11.24244 -11.23950 -11.23473 -11.22636
 Alpha  occ. eigenvalues --  -11.22590 -11.22551 -11.22424 -11.22368 -11.22171
 Alpha  occ. eigenvalues --  -11.21875 -11.21656 -11.19428  -1.40359  -1.39420
 Alpha  occ. eigenvalues --   -1.39255  -1.38144  -1.25520  -1.23604  -1.22723
 Alpha  occ. eigenvalues --   -1.22677  -1.10816  -1.09237  -1.07217  -1.04252
 Alpha  occ. eigenvalues --   -1.01240  -0.99165  -0.98710  -0.96032  -0.95096
 Alpha  occ. eigenvalues --   -0.94573  -0.92180  -0.87327  -0.85793  -0.82771
 Alpha  occ. eigenvalues --   -0.81116  -0.79553  -0.78978  -0.77267  -0.76935
 Alpha  occ. eigenvalues --   -0.72621  -0.72009  -0.71301  -0.68988  -0.68035
 Alpha  occ. eigenvalues --   -0.66866  -0.65864  -0.64586  -0.63914  -0.63571
 Alpha  occ. eigenvalues --   -0.62788  -0.62686  -0.61869  -0.61476  -0.61260
 Alpha  occ. eigenvalues --   -0.61074  -0.60160  -0.59391  -0.58757  -0.58368
 Alpha  occ. eigenvalues --   -0.58217  -0.57732  -0.56438  -0.56223  -0.55672
 Alpha  occ. eigenvalues --   -0.55320  -0.55034  -0.54874  -0.54795  -0.54177
 Alpha  occ. eigenvalues --   -0.53224  -0.53084  -0.52498  -0.51949  -0.51325
 Alpha  occ. eigenvalues --   -0.51162  -0.50248  -0.49815  -0.49302  -0.48572
 Alpha  occ. eigenvalues --   -0.48339  -0.46768  -0.46475  -0.44652  -0.43709
 Alpha  occ. eigenvalues --   -0.41561  -0.41111  -0.40935  -0.39124  -0.38895
 Alpha  occ. eigenvalues --   -0.38520  -0.38343  -0.34632
 Alpha virt. eigenvalues --    0.17208   0.18531   0.19322   0.19604   0.20116
 Alpha virt. eigenvalues --    0.21538   0.21900   0.22957   0.23174   0.23923
 Alpha virt. eigenvalues --    0.25309   0.25867   0.26179   0.26808   0.27510
 Alpha virt. eigenvalues --    0.27951   0.28539   0.28688   0.29030   0.29338
 Alpha virt. eigenvalues --    0.29427   0.30165   0.31092   0.31311   0.31596
 Alpha virt. eigenvalues --    0.32103   0.32242   0.32895   0.33424   0.33654
 Alpha virt. eigenvalues --    0.33821   0.34316   0.34538   0.35152   0.35317
 Alpha virt. eigenvalues --    0.35592   0.36211   0.36584   0.37200   0.37776
 Alpha virt. eigenvalues --    0.38247   0.39038   0.39218   0.39789   0.40249
 Alpha virt. eigenvalues --    0.40824   0.41000   0.42008   0.42567   0.43777
 Alpha virt. eigenvalues --    0.44801   0.45026   0.45458   0.45645   0.47260
 Alpha virt. eigenvalues --    0.48012   0.48962   0.49262   0.51850   0.52200
 Alpha virt. eigenvalues --    0.53785   0.55621   0.57690   0.59021   0.59681
 Alpha virt. eigenvalues --    0.61842   0.62756   0.64270   0.68988   0.70172
 Alpha virt. eigenvalues --    0.70596   0.71338   0.72407   0.72529   0.72974
 Alpha virt. eigenvalues --    0.74231   0.74884   0.75515   0.75998   0.76368
 Alpha virt. eigenvalues --    0.76722   0.76930   0.78348   0.78450   0.78633
 Alpha virt. eigenvalues --    0.79116   0.79937   0.80369   0.81345   0.81753
 Alpha virt. eigenvalues --    0.83054   0.84030   0.84932   0.85528   0.86039
 Alpha virt. eigenvalues --    0.87602   0.88121   0.88817   0.89744   0.90520
 Alpha virt. eigenvalues --    0.91113   0.92261   0.92527   0.93171   0.93891
 Alpha virt. eigenvalues --    0.94051   0.95469   0.95765   0.96920   0.98227
 Alpha virt. eigenvalues --    0.98486   0.99215   0.99412   0.99982   1.00337
 Alpha virt. eigenvalues --    1.01209   1.01831   1.02322   1.03018   1.03638
 Alpha virt. eigenvalues --    1.04147   1.04653   1.06031   1.06613   1.07467
 Alpha virt. eigenvalues --    1.07688   1.08067   1.09170   1.10328   1.11281
 Alpha virt. eigenvalues --    1.11848   1.12836   1.12946   1.13448   1.14089
 Alpha virt. eigenvalues --    1.14239   1.14455   1.14886   1.15195   1.15562
 Alpha virt. eigenvalues --    1.16066   1.16357   1.16512   1.17307   1.17822
 Alpha virt. eigenvalues --    1.18062   1.18140   1.18638   1.19180   1.19350
 Alpha virt. eigenvalues --    1.19764   1.19966   1.20902   1.21061   1.21538
 Alpha virt. eigenvalues --    1.21718   1.21894   1.22182   1.22447   1.22587
 Alpha virt. eigenvalues --    1.23074   1.23700   1.24893   1.25385   1.25941
 Alpha virt. eigenvalues --    1.26624   1.27072   1.27427   1.27667   1.28666
 Alpha virt. eigenvalues --    1.29468   1.29659   1.30131   1.31099   1.32230
 Alpha virt. eigenvalues --    1.32942   1.33873   1.35061   1.35789   1.38138
 Alpha virt. eigenvalues --    1.38250   1.38804   1.40952   1.41693   1.42156
 Alpha virt. eigenvalues --    1.43402   1.46079   1.47406   1.47725   1.48964
 Alpha virt. eigenvalues --    1.50498   1.52249   1.53025   1.54334   1.55347
 Alpha virt. eigenvalues --    1.56415   1.58495   1.59848   1.61180   1.61514
 Alpha virt. eigenvalues --    1.62035   1.64258   1.65793   1.66650   1.69209
 Alpha virt. eigenvalues --    1.69871   1.71338   1.71947   1.72962   1.74148
 Alpha virt. eigenvalues --    1.74528   1.74710   1.78388   1.78857   1.79254
 Alpha virt. eigenvalues --    1.80538   1.81808   1.82762   1.86140   1.87363
 Alpha virt. eigenvalues --    1.89526   1.90608   1.91255   1.91535   1.94394
 Alpha virt. eigenvalues --    1.95946   1.97921   1.98394   1.98589   2.00452
 Alpha virt. eigenvalues --    2.03800   2.04443   2.05054   2.06634   2.07295
 Alpha virt. eigenvalues --    2.08606   2.09479   2.11327   2.12200   2.12616
 Alpha virt. eigenvalues --    2.12901   2.14154   2.14537   2.15219   2.16143
 Alpha virt. eigenvalues --    2.16292   2.17838   2.18280   2.19116   2.19645
 Alpha virt. eigenvalues --    2.20255   2.21442   2.21760   2.22129   2.23025
 Alpha virt. eigenvalues --    2.24620   2.25633   2.25668   2.27160   2.27761
 Alpha virt. eigenvalues --    2.28291   2.29217   2.30824   2.31721   2.32790
 Alpha virt. eigenvalues --    2.32968   2.33953   2.34307   2.35652   2.35883
 Alpha virt. eigenvalues --    2.36680   2.37029   2.37331   2.38067   2.39215
 Alpha virt. eigenvalues --    2.39358   2.39964   2.41915   2.43376   2.44361
 Alpha virt. eigenvalues --    2.45529   2.46064   2.47434   2.49136   2.50123
 Alpha virt. eigenvalues --    2.51956   2.52333   2.54356   2.54762   2.55997
 Alpha virt. eigenvalues --    2.56533   2.57148   2.58457   2.59204   2.60910
 Alpha virt. eigenvalues --    2.63015   2.63651   2.63945   2.64542   2.65238
 Alpha virt. eigenvalues --    2.67163   2.68549   2.69080   2.70161   2.71387
 Alpha virt. eigenvalues --    2.72501   2.73401   2.74621   2.75055   2.76017
 Alpha virt. eigenvalues --    2.76309   2.77783   2.78002   2.79476   2.79966
 Alpha virt. eigenvalues --    2.81427   2.82428   2.84885   2.86105   2.86309
 Alpha virt. eigenvalues --    2.87253   2.88124   2.91093   2.91695   2.94896
 Alpha virt. eigenvalues --    2.95778   2.97789   2.98730   3.00285   3.00801
 Alpha virt. eigenvalues --    3.03213   3.04898   3.05430   3.05817   3.06535
 Alpha virt. eigenvalues --    3.10953   3.11093   3.12644   3.13175   3.15693
 Alpha virt. eigenvalues --    3.17220   3.18358   3.21997   3.27835   3.30542
 Alpha virt. eigenvalues --    3.34345   3.36588   3.39767   3.40467   3.41218
 Alpha virt. eigenvalues --    3.42657   3.43093   3.51809   3.55663   3.57539
 Alpha virt. eigenvalues --    3.59189   4.38212   4.38384   4.45122   4.49117
 Alpha virt. eigenvalues --    4.51741   4.51864   4.54133   4.56967   4.61535
 Alpha virt. eigenvalues --    4.63685   4.65008   4.66810   4.68100   4.70142
 Alpha virt. eigenvalues --    4.72526   4.76025   4.78572   4.83164   4.83800
 Alpha virt. eigenvalues --    4.89275   4.90940   4.93452   4.94398   4.98776
 Alpha virt. eigenvalues --    5.01783   5.09072   5.20617   5.23513
          Condensed to atoms (all electrons):
 Mulliken atomic charges:
              1
     1  C   -0.280409
     2  N   -0.790758
     3  C    0.815099
     4  O   -0.617399
     5  C    0.099436
     6  C   -0.494648
     7  C   -0.331466
     8  C   -0.313163
     9  C   -0.373958
    10  C   -0.178001
    11  C   -0.176489
    12  C   -0.353739
    13  C   -0.310731
    14  C   -0.329034
    15  C    0.091130
    16  C   -0.509545
    17  N   -0.787620
    18  C    0.767256
    19  C   -0.595715
    20  O   -0.613881
    21  C    0.820559
    22  O   -0.639067
    23  N   -0.806134
    24  C   -0.275585
    25  N   -0.852424
    26  C    0.760798
    27  C   -0.588802
    28  O   -0.592318
    29  H    0.179788
    30  H    0.203671
    31  H    0.165223
    32  H    0.385976
    33  H    0.189759
    34  H    0.147112
    35  H    0.256717
    36  H    0.174883
    37  H    0.161861
    38  H    0.164248
    39  H    0.184461
    40  H    0.210813
    41  H    0.175808
    42  H    0.176146
    43  H    0.169104
    44  H    0.177831
    45  H    0.160508
    46  H    0.151597
    47  H    0.199534
    48  H    0.173197
    49  H    0.184479
    50  H    0.183581
    51  H    0.147986
    52  H    0.226780
    53  H    0.389870
    54  H    0.211270
    55  H    0.209637
    56  H    0.176363
    57  H    0.395213
    58  H    0.164559
    59  H    0.199784
    60  H    0.185261
    61  H    0.380550
    62  H    0.219968
    63  H    0.174348
    64  H    0.198723
 Sum of Mulliken atomic charges =   0.00000
 Mulliken charges with hydrogens summed into heavy atoms:
              1
     1  C    0.268272
     2  N   -0.404782
     3  C    0.815099
     4  O   -0.617399
     5  C    0.099436
     6  C    0.098940
     7  C    0.005278
     8  C    0.035546
     9  C    0.012663
    10  C   -0.001854
    11  C   -0.007385
    12  C   -0.015400
    13  C    0.040400
    14  C    0.028642
    15  C    0.091130
    16  C    0.048802
    17  N   -0.397750
    18  C    0.767256
    19  C    0.001554
    20  O   -0.613881
    21  C    0.820559
    22  O   -0.639067
    23  N   -0.410921
    24  C    0.274019
    25  N   -0.471874
    26  C    0.760798
    27  C    0.004237
    28  O   -0.592318
 Sum of Mulliken charges with hydrogens summed into heavy atoms =   0.00000
 Electronic spatial extent (au):  <R**2>=          22401.5109
 Charge=              0.0000 electrons
 Dipole moment (field-independent basis, Debye):
    X=             -1.7495    Y=             -3.0189    Z=              7.4410  Tot=              8.2185
 Quadrupole moment (field-independent basis, Debye-Ang):
   XX=           -209.8369   YY=           -155.0160   ZZ=           -172.1582
   XY=              3.9105   XZ=            -25.1901   YZ=             10.3207
 Traceless Quadrupole moment (field-independent basis, Debye-Ang):
   XX=            -30.8332   YY=             23.9877   ZZ=              6.8455
   XY=              3.9105   XZ=            -25.1901   YZ=             10.3207
 Octapole moment (field-independent basis, Debye-Ang**2):
  XXX=           -128.4367  YYY=             47.7599  ZZZ=             16.7264  XYY=             50.6020
  XXY=           -151.3653  XXZ=            217.5885  XZZ=             -8.5521  YZZ=             -2.1894
  YYZ=              7.4425  XYZ=             10.7815
 Hexadecapole moment (field-independent basis, Debye-Ang**3):
 XXXX=         -29248.3235 YYYY=          -2275.9200 ZZZZ=          -1288.8548 XXXY=           -112.8398
 XXXZ=          -1472.0311 YYYX=             72.2258 YYYZ=             21.6578 ZZZX=            -49.7369
 ZZZY=             22.3548 XXYY=          -4192.7505 XXZZ=          -4416.1283 YYZZ=           -617.1949
 XXYZ=            192.2955 YYXZ=            -83.5597 ZZXY=             29.7201
 N-N= 2.673911798040D+03 E-N=-8.379810664042D+03  KE= 1.294102166795D+03
 1\1\GINC-MOSURA\SP\RHF\6-31G(d)\C20H36N4O4\MARIE\05-Dec-2019\0\\#SP HF
 /6-31G* Geom=(ModRedundant)\\paramfit run\\0,1\C,0,0.,0.,0.\N,0,1.4481
 87,0.,0.\C,0,2.1232,0.47592,1.072365\O,0,1.590179,0.696732,2.124447\C,
 0,3.650505,0.594143,0.921539\C,0,4.198902,1.549248,1.986845\C,0,4.3077
 51,-0.809116,1.023981\C,0,4.133566,-1.622781,2.319066\C,0,2.832729,-2.
 433298,2.484965\C,0,2.579342,-3.423586,1.372579\C,0,2.834093,-4.721989
 ,1.375535\C,0,3.442731,-5.535663,2.492337\C,0,2.42774,-6.370218,3.2941
 33\C,0,1.693892,-7.402618,2.427801\C,0,0.774274,-8.428536,3.139447\C,0
 ,0.118887,-9.296969,2.053288\N,0,1.59533,-9.267679,4.001559\C,0,1.0367
 79,-10.167772,4.862321\C,0,1.96438,-10.678762,5.940862\O,0,-0.103289,-
 10.530888,4.775526\C,0,-0.228361,-7.657085,4.027316\O,0,0.090004,-7.29
 6707,5.128542\N,0,-1.416619,-7.323616,3.478843\C,0,-2.421442,-6.64525,
 4.271531\N,0,3.997412,1.070275,-0.425452\C,0,4.32119,2.363876,-0.71082
 \C,0,4.983476,2.579135,-2.055871\O,0,4.089339,3.268957,0.039655\H,0,-0
 .403259,1.006147,0.\H,0,-0.36496,-0.516002,0.875939\H,0,-0.345658,-0.5
 22086,-0.883346\H,0,1.904244,0.070913,-0.879357\H,0,3.932135,1.22176,2
 .980082\H,0,5.28092,1.595925,1.9075\H,0,3.792711,2.540594,1.848395\H,0
 ,5.374584,-0.64325,0.891407\H,0,3.984642,-1.403324,0.174983\H,0,4.9615
 65,-2.324757,2.354635\H,0,4.250121,-0.975721,3.182259\H,0,1.985724,-1.
 764045,2.562723\H,0,2.895638,-2.94811,3.437249\H,0,2.135502,-3.009181,
 0.481856\H,0,2.579482,-5.276386,0.485828\H,0,3.971519,-4.889909,3.1828
 81\H,0,4.191817,-6.202016,2.066382\H,0,2.965623,-6.85691,4.102952\H,0,
 1.714584,-5.707921,3.766998\H,0,2.42081,-7.979938,1.860503\H,0,1.08316
 7,-6.875737,1.704087\H,0,0.891187,-9.872528,1.556434\H,0,-0.36551,-8.6
 84705,1.299714\H,0,-0.597925,-9.98679,2.472891\H,0,2.435807,-8.84784,4
 .327205\H,0,1.585188,-11.616367,6.31792\H,0,1.981002,-9.957975,6.75284
 4\H,0,2.97817,-10.810647,5.57862\H,0,-1.730263,-7.831365,2.685667\H,0,
 -3.24021,-6.362494,3.623002\H,0,-1.998054,-5.755067,4.713054\H,0,-2.79
 9425,-7.276973,5.068907\H,0,4.351061,0.378005,-1.04774\H,0,4.8448,3.60
 8554,-2.352586\H,0,4.584402,1.921501,-2.819944\H,0,6.047493,2.386244,-
 1.963888\\Version=EM64L-G09RevA.02\State=1-A\HF=-1295.6072581\RMSD=6.8
 80e-09\Dipole=1.2151714,-0.7315949,-2.9056764\Quadrupole=16.5400799,-3
 1.2440741,14.7039943,-7.6390951,4.9060396,-6.1150874\PG=C01 [X(C20H36N
 4O4)]\\@


 The mind is not a vessel to be filled but a fire to be kindled.
                                  -- Plutarch
 Job cpu time:  0 days  0 hours  5 minutes  6.4 seconds.
 File lengths (MBytes):  RWF=    132 Int=      0 D2E=      0 Chk=     10 Scr=      1
 Normal termination of Gaussian 09 at Thu Dec  5 16:20:30 2019.
