 Entering Gaussian System, Link 0=g09
 Input=PHI_-120.gau
 Output=PHI_-120.log
 Initial command:
 /home/marie/Utilities//g09/l1.exe /tmp/g09/Gau-4111.inp -scrdir=/tmp/g09/
 Entering Link 1 = /home/marie/Utilities//g09/l1.exe PID=      4113.
  
 Copyright (c) 1988,1990,1992,1993,1995,1998,2003,2009, Gaussian, Inc.
                  All Rights Reserved.
  
 This is part of the Gaussian(R) 09 program.  It is based on
 the Gaussian(R) 03 system (copyright 2003, Gaussian, Inc.),
 the Gaussian(R) 98 system (copyright 1998, Gaussian, Inc.),
 the Gaussian(R) 94 system (copyright 1995, Gaussian, Inc.),
 the Gaussian 92(TM) system (copyright 1992, Gaussian, Inc.),
 the Gaussian 90(TM) system (copyright 1990, Gaussian, Inc.),
 the Gaussian 88(TM) system (copyright 1988, Gaussian, Inc.),
 the Gaussian 86(TM) system (copyright 1986, Carnegie Mellon
 University), and the Gaussian 82(TM) system (copyright 1983,
 Carnegie Mellon University). Gaussian is a federally registered
 trademark of Gaussian, Inc.
  
 This software contains proprietary and confidential information,
 including trade secrets, belonging to Gaussian, Inc.
  
 This software is provided under written license and may be
 used, copied, transmitted, or stored only in accord with that
 written license.
  
 The following legend is applicable only to US Government
 contracts under FAR:
  
                    RESTRICTED RIGHTS LEGEND
  
 Use, reproduction and disclosure by the US Government is
 subject to restrictions as set forth in subparagraphs (a)
 and (c) of the Commercial Computer Software - Restricted
 Rights clause in FAR 52.227-19.
  
 Gaussian, Inc.
 340 Quinnipiac St., Bldg. 40, Wallingford CT 06492
  
  
 ---------------------------------------------------------------
 Warning -- This program may not be used in any manner that
 competes with the business of Gaussian, Inc. or will provide
 assistance to any competitor of Gaussian, Inc.  The licensee
 of this program is prohibited from giving any competitor of
 Gaussian, Inc. access to this program.  By using this program,
 the user acknowledges that Gaussian, Inc. is engaged in the
 business of creating and licensing software in the field of
 computational chemistry and represents and warrants to the
 licensee that it is not a competitor of Gaussian, Inc. and that
 it will not use this program in any manner prohibited above.
 ---------------------------------------------------------------
  

 Cite this work as:
 Gaussian 09, Revision A.02,
 M. J. Frisch, G. W. Trucks, H. B. Schlegel, G. E. Scuseria, 
 M. A. Robb, J. R. Cheeseman, G. Scalmani, V. Barone, B. Mennucci, 
 G. A. Petersson, H. Nakatsuji, M. Caricato, X. Li, H. P. Hratchian, 
 A. F. Izmaylov, J. Bloino, G. Zheng, J. L. Sonnenberg, M. Hada, 
 M. Ehara, K. Toyota, R. Fukuda, J. Hasegawa, M. Ishida, T. Nakajima, 
 Y. Honda, O. Kitao, H. Nakai, T. Vreven, J. A. Montgomery, Jr., 
 J. E. Peralta, F. Ogliaro, M. Bearpark, J. J. Heyd, E. Brothers, 
 K. N. Kudin, V. N. Staroverov, R. Kobayashi, J. Normand, 
 K. Raghavachari, A. Rendell, J. C. Burant, S. S. Iyengar, J. Tomasi, 
 M. Cossi, N. Rega, J. M. Millam, M. Klene, J. E. Knox, J. B. Cross, 
 V. Bakken, C. Adamo, J. Jaramillo, R. Gomperts, R. E. Stratmann, 
 O. Yazyev, A. J. Austin, R. Cammi, C. Pomelli, J. W. Ochterski, 
 R. L. Martin, K. Morokuma, V. G. Zakrzewski, G. A. Voth, 
 P. Salvador, J. J. Dannenberg, S. Dapprich, A. D. Daniels, 
 O. Farkas, J. B. Foresman, J. V. Ortiz, J. Cioslowski, 
 and D. J. Fox, Gaussian, Inc., Wallingford CT, 2009.
 
 ******************************************
 Gaussian 09:  EM64L-G09RevA.02 11-Jun-2009
                 5-Dec-2019 
 ******************************************
 %chk=PHI_-120
 %NoSave
 ---------------------------------
 #SP HF/6-31G* Geom=(ModRedundant)
 ---------------------------------
 1/18=120,38=1/1;
 2/12=2,17=6,18=5,40=1/2;
 3/5=1,6=6,7=1,11=9,16=1,25=1,30=1/1,2,3;
 4//1;
 5/5=2,38=5/2;
 6/7=2,8=2,9=2,10=2,28=1/1;
 99/5=1,9=1/99;
 ------------
 paramfit run
 ------------
 Symbolic Z-matrix:
 Charge =  0 Multiplicity = 1
 C-CT--0.3208          0.        0.        0. 
 N-N--0.5622           1.44819   0.        0. 
 C-C-0.8053            2.1232    0.47592   1.07237 
 O-O--0.6151           1.59018   0.69673   2.12445 
 C-CX-0.0839           3.65051   0.59414   0.92154 
 C-CU--0.3230          4.1989    1.54925   1.98685 
 C-CU--0.0657          4.30775  -0.80912   1.02398 
 C-CU--0.0109          4.13357  -1.62278   2.31907 
 C-CU-0.0816           2.83273  -2.4333    2.48497 
 C-CM--0.2354          2.57934  -3.42359   1.37258 
 C-CM--0.2653          2.83409  -4.72199   1.37554 
 C-CU-0.1214           3.44273  -5.53566   2.49234 
 C-CU--0.0354          2.42774  -6.37022   3.29413 
 C-CU--0.0984          1.69389  -7.40262   2.4278 
 C-CU-0.1300           0.77427  -8.42854   3.13945 
 C-CU--0.3561          0.11889  -9.29697   2.05329 
 N-N--0.7186           1.59533  -9.26768   4.00156 
 C-C-0.8537            1.03678  -10.16777   4.86232 
 C-CT--0.3868          1.96438  -10.67876   5.94086 
 O-O--0.6323          -0.10329  -10.53089   4.77553 
 C-C-0.7903           -0.22836  -7.65709   4.02732 
 O-O--0.6136           0.09     -7.29671   5.12854 
 N-N--0.5650          -1.41662  -7.32362   3.47884 
 C-CT--0.3231         -2.42144  -6.64525   4.27153 
 N-N--0.7191           3.99741   1.07028  -0.42545 
 C-C-0.8539            4.76719   0.36477  -1.3026 
 C-CT--0.3903          4.71434   0.84794  -2.73713 
 O-O--0.6290           5.44687  -0.56275  -0.96515 
 H-H1-0.1459          -0.40326   1.00615   0. 
 H-H1-0.1459          -0.36496  -0.516     0.87594 
 H-H1-0.1459          -0.34566  -0.52209  -0.88335 
 H-H-0.3572            1.90424   0.07091  -0.87936 
 H-HC-0.0997           3.93214   1.22176   2.98008 
 H-HC-0.0997           5.28092   1.59593   1.9075 
 H-HC-0.0997           3.79271   2.54059   1.8484 
 H-HC-0.0347           5.37458  -0.64325   0.89141 
 H-HC-0.0347           3.98464  -1.40332   0.17498 
 H-HC-0.0243           4.96157  -2.32476   2.35464 
 H-HC-0.0243           4.25012  -0.97572   3.18226 
 H-HC-0.0171           1.98572  -1.76405   2.56272 
 H-HC-0.0171           2.89564  -2.94811   3.43725 
 H-HA-0.1313           2.1355   -3.00918   0.48186 
 H-HA-0.1359           2.57948  -5.27639   0.48583 
 H-HC-0.0092           3.97152  -4.88991   3.18288 
 H-HC-0.0092           4.19182  -6.20202   2.06638 
 H-HC-0.0318           2.96562  -6.85691   4.10295 
 H-HC-0.0318           1.71458  -5.70792   3.767 
 H-HC-0.0435           2.42081  -7.97994   1.8605 
 H-HC-0.0435           1.08317  -6.87574   1.70409 
 H-HC-0.1066           0.89119  -9.87253   1.55643 
 H-HC-0.1066          -0.36551  -8.68471   1.29971 
 H-HC-0.1066          -0.59793  -9.98679   2.47289 
 H-H-0.3529            2.43581  -8.84784   4.32721 
 H-HC-0.1047           1.58519  -11.61637   6.31792 
 H-HC-0.1047           1.981    -9.95798   6.75284 
 H-HC-0.1047           2.97817  -10.81065   5.57862 
 H-H-0.3615           -1.73026  -7.83136   2.68567 
 H-H1-0.1469          -3.24021  -6.36249   3.623 
 H-H1-0.1469          -1.99805  -5.75507   4.71305 
 H-H1-0.1469          -2.79943  -7.27697   5.06891 
 H-H-0.3570            3.3682    1.73229  -0.82216 
 H-HC-0.1060           5.60363   0.51349  -3.25119 
 H-HC-0.1060           4.63741   1.92735  -2.80422 
 H-HC-0.1060           3.84827   0.41479  -3.22715 
 
 The following ModRedundant input section has been read:
 D    *    5   25    * F                                                       
 Stoichiometry    C20H36N4O4
 Framework group  C1[X(C20H36N4O4)]
 Deg. of freedom   186
 Full point group                 C1      NOp   1
 Largest Abelian subgroup         C1      NOp   1
 Largest concise Abelian subgroup C1      NOp   1
                         Standard orientation:                         
 ---------------------------------------------------------------------
 Center     Atomic      Atomic             Coordinates (Angstroms)
 Number     Number       Type             X           Y           Z
 ---------------------------------------------------------------------
      1          6    20001001       -3.791531    3.119169    1.075629
      2          7    20001014       -4.214669    1.778375    0.728539
      3          6    20001002       -4.410292    1.446964   -0.569155
      4          8    20001024       -4.037981    2.139764   -1.475333
      5          6    90000001       -5.018526    0.058358   -0.836006
      6          6    90000002       -5.598511    0.016053   -2.253635
      7          6    90000002       -3.944825   -1.044175   -0.628188
      8          6    90000002       -2.679080   -1.028736   -1.504136
      9          6    90000002       -1.526371   -0.097567   -1.078902
     10          6    20001004       -1.020172   -0.346431    0.322564
     11          6    20001004        0.040811   -1.049854    0.683492
     12          6    90000002        1.008448   -1.779479   -0.217106
     13          6    90000002        2.346126   -1.049252   -0.433791
     14          6    90000002        3.125261   -0.840458    0.871685
     15          6    90000002        4.567158   -0.277752    0.777141
     16          6    90000002        5.094572   -0.107530    2.211124
     17          7    20001014        5.395854   -1.242206    0.066773
     18          6    20001002        6.680370   -0.951478   -0.291771
     19          6    20001001        7.275500   -1.871691   -1.332846
     20          8    20001024        7.296913   -0.036686    0.179580
     21          6    20001002        4.531741    1.029579   -0.046484
     22          8    20001024        4.552494    0.990016   -1.247288
     23          7    20001014        4.374153    2.187471    0.630594
     24          6    20001001        4.383649    3.452451   -0.075055
     25          7    20001014       -6.060076   -0.244536    0.156395
     26          6    20001002       -6.010059   -1.311292    1.004454
     27          6    20001001       -6.975020   -1.251497    2.170385
     28          8    20001024       -5.267047   -2.236415    0.836470
     29          1    20001035       -4.552661    3.855103    0.843184
     30          1    20001035       -2.893209    3.370802    0.531183
     31          1    20001035       -3.578244    3.150523    2.136703
     32          1    20001029       -4.752115    1.281617    1.399858
     33          1    20001034       -4.847910    0.258057   -2.990497
     34          1    20001034       -5.986317   -0.977935   -2.455702
     35          1    20001034       -6.399739    0.733612   -2.353979
     36          1    20001034       -4.453034   -1.987211   -0.816945
     37          1    20001034       -3.661755   -1.055779    0.419675
     38          1    20001034       -2.293929   -2.044253   -1.505493
     39          1    20001034       -2.942445   -0.805234   -2.532757
     40          1    20001034       -1.833276    0.936651   -1.165879
     41          1    20001034       -0.724392   -0.232957   -1.796073
     42          1    20001033       -1.599175    0.112463    1.107601
     43          1    20001033        0.253245   -1.115162    1.739128
     44          1    20001034        0.558581   -1.957759   -1.186282
     45          1    20001034        1.205912   -2.761621    0.210676
     46          1    20001034        2.928923   -1.630586   -1.142856
     47          1    20001034        2.159964   -0.096498   -0.911739
     48          1    20001034        3.196414   -1.786077    1.404861
     49          1    20001034        2.561761   -0.167515    1.507269
     50          1    20001034        5.178344   -1.086515    2.668454
     51          1    20001034        4.407950    0.475823    2.815798
     52          1    20001034        6.069940    0.355291    2.224996
     53          1    20001029        4.910255   -1.832000   -0.569661
     54          1    20001034        8.352123   -1.815587   -1.279955
     55          1    20001034        6.956995   -1.534926   -2.314818
     56          1    20001034        6.953515   -2.899053   -1.201561
     57          1    20001029        4.600655    2.204613    1.596882
     58          1    20001035        4.123462    4.238591    0.621514
     59          1    20001035        3.654129    3.431498   -0.871289
     60          1    20001035        5.356291    3.665498   -0.506715
     61          1    20001029       -6.608952    0.531435    0.453295
     62          1    20001034       -7.142758   -2.253875    2.536548
     63          1    20001034       -7.921618   -0.798934    1.897095
     64          1    20001034       -6.534290   -0.661520    2.967558
 ---------------------------------------------------------------------
 Rotational constants (GHZ):      0.3515440      0.0534446      0.0510748
 Standard basis: 6-31G(d) (6D, 7F)
 There are   492 symmetry adapted basis functions of A   symmetry.
 Integral buffers will be    131072 words long.
 Raffenetti 1 integral format.
 Two-electron integral symmetry is turned on.
   492 basis functions,   928 primitive gaussians,   492 cartesian basis functions
   108 alpha electrons      108 beta electrons
       nuclear repulsion energy      2704.5002300664 Hartrees.
 NAtoms=   64 NActive=   64 NUniq=   64 SFac= 7.50D-01 NAtFMM=   80 NAOKFM=F Big=T
 One-electron integrals computed using PRISM.
 NBasis=   492 RedAO= T  NBF=   492
 NBsUse=   492 1.00D-06 NBFU=   492
 Harris functional with IExCor=  205 diagonalized for initial guess.
 ExpMin= 1.61D-01 ExpMax= 5.48D+03 ExpMxC= 8.25D+02 IAcc=1 IRadAn=         1 AccDes= 0.00D+00
 HarFok:  IExCor=  205 AccDes= 0.00D+00 IRadAn=         1 IDoV= 1
 ScaDFX=  1.000000  1.000000  1.000000  1.000000
 FoFCou: FMM=F IPFlag=           0 FMFlag=      100000 FMFlg1=           1
         NFxFlg=           0 DoJE=T BraDBF=F KetDBF=T FulRan=T
         Omega=  0.000000  0.000000  1.000000  0.000000  0.000000 ICntrl=     500 IOpCl=  0
         NMat0=    1 NMatS0=    1 NMatT0=    0 NMatD0=    1 NMtDS0=    0 NMtDT0=    0
         I1Cent=           4 NGrid=           0.
 Petite list used in FoFCou.
 Initial guess orbital symmetries:
       Occupied  (A) (A) (A) (A) (A) (A) (A) (A) (A) (A) (A) (A)
                 (A) (A) (A) (A) (A) (A) (A) (A) (A) (A) (A) (A)
                 (A) (A) (A) (A) (A) (A) (A) (A) (A) (A) (A) (A)
                 (A) (A) (A) (A) (A) (A) (A) (A) (A) (A) (A) (A)
                 (A) (A) (A) (A) (A) (A) (A) (A) (A) (A) (A) (A)
                 (A) (A) (A) (A) (A) (A) (A) (A) (A) (A) (A) (A)
                 (A) (A) (A) (A) (A) (A) (A) (A) (A) (A) (A) (A)
                 (A) (A) (A) (A) (A) (A) (A) (A) (A) (A) (A) (A)
                 (A) (A) (A) (A) (A) (A) (A) (A) (A) (A) (A) (A)
       Virtual   (A) (A) (A) (A) (A) (A) (A) (A) (A) (A) (A) (A)
                 (A) (A) (A) (A) (A) (A) (A) (A) (A) (A) (A) (A)
                 (A) (A) (A) (A) (A) (A) (A) (A) (A) (A) (A) (A)
                 (A) (A) (A) (A) (A) (A) (A) (A) (A) (A) (A) (A)
                 (A) (A) (A) (A) (A) (A) (A) (A) (A) (A) (A) (A)
                 (A) (A) (A) (A) (A) (A) (A) (A) (A) (A) (A) (A)
                 (A) (A) (A) (A) (A) (A) (A) (A) (A) (A) (A) (A)
                 (A) (A) (A) (A) (A) (A) (A) (A) (A) (A) (A) (A)
                 (A) (A) (A) (A) (A) (A) (A) (A) (A) (A) (A) (A)
                 (A) (A) (A) (A) (A) (A) (A) (A) (A) (A) (A) (A)
                 (A) (A) (A) (A) (A) (A) (A) (A) (A) (A) (A) (A)
                 (A) (A) (A) (A) (A) (A) (A) (A) (A) (A) (A) (A)
                 (A) (A) (A) (A) (A) (A) (A) (A) (A) (A) (A) (A)
                 (A) (A) (A) (A) (A) (A) (A) (A) (A) (A) (A) (A)
                 (A) (A) (A) (A) (A) (A) (A) (A) (A) (A) (A) (A)
                 (A) (A) (A) (A) (A) (A) (A) (A) (A) (A) (A) (A)
                 (A) (A) (A) (A) (A) (A) (A) (A) (A) (A) (A) (A)
                 (A) (A) (A) (A) (A) (A) (A) (A) (A) (A) (A) (A)
                 (A) (A) (A) (A) (A) (A) (A) (A) (A) (A) (A) (A)
                 (A) (A) (A) (A) (A) (A) (A) (A) (A) (A) (A) (A)
                 (A) (A) (A) (A) (A) (A) (A) (A) (A) (A) (A) (A)
                 (A) (A) (A) (A) (A) (A) (A) (A) (A) (A) (A) (A)
                 (A) (A) (A) (A) (A) (A) (A) (A) (A) (A) (A) (A)
                 (A) (A) (A) (A) (A) (A) (A) (A) (A) (A) (A) (A)
                 (A) (A) (A) (A) (A) (A) (A) (A) (A) (A) (A) (A)
                 (A) (A) (A) (A) (A) (A) (A) (A) (A) (A) (A) (A)
                 (A) (A) (A) (A) (A) (A) (A) (A) (A) (A) (A) (A)
                 (A) (A) (A) (A) (A) (A) (A) (A) (A) (A) (A) (A)
                 (A) (A) (A) (A) (A) (A) (A) (A) (A) (A) (A) (A)
                 (A) (A) (A) (A) (A) (A) (A) (A) (A) (A) (A) (A)
                 (A) (A) (A) (A) (A) (A) (A) (A) (A) (A) (A) (A)
                 (A) (A) (A) (A) (A) (A) (A) (A) (A) (A) (A) (A)
 The electronic state of the initial guess is 1-A.
 Requested convergence on RMS density matrix=1.00D-08 within 128 cycles.
 Requested convergence on MAX density matrix=1.00D-06.
 Requested convergence on             energy=1.00D-06.
 No special actions if energy rises.
 Integral accuracy reduced to 1.0D-05 until final iterations.
 Initial convergence to 1.0D-05 achieved.  Increase integral accuracy.
 SCF Done:  E(RHF) =  -1295.57796302     A.U. after   14 cycles
             Convg  =    0.7880D-08             -V/T =  2.0010

 **********************************************************************

            Population analysis using the SCF density.

 **********************************************************************

 Orbital symmetries:
       Occupied  (A) (A) (A) (A) (A) (A) (A) (A) (A) (A) (A) (A)
                 (A) (A) (A) (A) (A) (A) (A) (A) (A) (A) (A) (A)
                 (A) (A) (A) (A) (A) (A) (A) (A) (A) (A) (A) (A)
                 (A) (A) (A) (A) (A) (A) (A) (A) (A) (A) (A) (A)
                 (A) (A) (A) (A) (A) (A) (A) (A) (A) (A) (A) (A)
                 (A) (A) (A) (A) (A) (A) (A) (A) (A) (A) (A) (A)
                 (A) (A) (A) (A) (A) (A) (A) (A) (A) (A) (A) (A)
                 (A) (A) (A) (A) (A) (A) (A) (A) (A) (A) (A) (A)
                 (A) (A) (A) (A) (A) (A) (A) (A) (A) (A) (A) (A)
       Virtual   (A) (A) (A) (A) (A) (A) (A) (A) (A) (A) (A) (A)
                 (A) (A) (A) (A) (A) (A) (A) (A) (A) (A) (A) (A)
                 (A) (A) (A) (A) (A) (A) (A) (A) (A) (A) (A) (A)
                 (A) (A) (A) (A) (A) (A) (A) (A) (A) (A) (A) (A)
                 (A) (A) (A) (A) (A) (A) (A) (A) (A) (A) (A) (A)
                 (A) (A) (A) (A) (A) (A) (A) (A) (A) (A) (A) (A)
                 (A) (A) (A) (A) (A) (A) (A) (A) (A) (A) (A) (A)
                 (A) (A) (A) (A) (A) (A) (A) (A) (A) (A) (A) (A)
                 (A) (A) (A) (A) (A) (A) (A) (A) (A) (A) (A) (A)
                 (A) (A) (A) (A) (A) (A) (A) (A) (A) (A) (A) (A)
                 (A) (A) (A) (A) (A) (A) (A) (A) (A) (A) (A) (A)
                 (A) (A) (A) (A) (A) (A) (A) (A) (A) (A) (A) (A)
                 (A) (A) (A) (A) (A) (A) (A) (A) (A) (A) (A) (A)
                 (A) (A) (A) (A) (A) (A) (A) (A) (A) (A) (A) (A)
                 (A) (A) (A) (A) (A) (A) (A) (A) (A) (A) (A) (A)
                 (A) (A) (A) (A) (A) (A) (A) (A) (A) (A) (A) (A)
                 (A) (A) (A) (A) (A) (A) (A) (A) (A) (A) (A) (A)
                 (A) (A) (A) (A) (A) (A) (A) (A) (A) (A) (A) (A)
                 (A) (A) (A) (A) (A) (A) (A) (A) (A) (A) (A) (A)
                 (A) (A) (A) (A) (A) (A) (A) (A) (A) (A) (A) (A)
                 (A) (A) (A) (A) (A) (A) (A) (A) (A) (A) (A) (A)
                 (A) (A) (A) (A) (A) (A) (A) (A) (A) (A) (A) (A)
                 (A) (A) (A) (A) (A) (A) (A) (A) (A) (A) (A) (A)
                 (A) (A) (A) (A) (A) (A) (A) (A) (A) (A) (A) (A)
                 (A) (A) (A) (A) (A) (A) (A) (A) (A) (A) (A) (A)
                 (A) (A) (A) (A) (A) (A) (A) (A) (A) (A) (A) (A)
                 (A) (A) (A) (A) (A) (A) (A) (A) (A) (A) (A) (A)
                 (A) (A) (A) (A) (A) (A) (A) (A) (A) (A) (A) (A)
                 (A) (A) (A) (A) (A) (A) (A) (A) (A) (A) (A) (A)
                 (A) (A) (A) (A) (A) (A) (A) (A) (A) (A) (A) (A)
                 (A) (A) (A) (A) (A) (A) (A) (A) (A) (A) (A) (A)
                 (A) (A) (A) (A) (A) (A) (A) (A) (A) (A) (A) (A)
 The electronic state is 1-A.
 Alpha  occ. eigenvalues --  -20.53316 -20.52747 -20.51806 -20.51351 -15.60022
 Alpha  occ. eigenvalues --  -15.59565 -15.57704 -15.57238 -11.36322 -11.34961
 Alpha  occ. eigenvalues --  -11.34009 -11.33436 -11.28878 -11.28260 -11.26612
 Alpha  occ. eigenvalues --  -11.24862 -11.24676 -11.22979 -11.22284 -11.21850
 Alpha  occ. eigenvalues --  -11.21793 -11.21546 -11.21395 -11.21219 -11.21184
 Alpha  occ. eigenvalues --  -11.20686 -11.20533 -11.20379  -1.41122  -1.40189
 Alpha  occ. eigenvalues --   -1.39124  -1.37851  -1.26136  -1.23516  -1.23266
 Alpha  occ. eigenvalues --   -1.22414  -1.09945  -1.08681  -1.06833  -1.03662
 Alpha  occ. eigenvalues --   -1.00730  -0.99273  -0.98483  -0.96950  -0.94726
 Alpha  occ. eigenvalues --   -0.93960  -0.91297  -0.87006  -0.85537  -0.82629
 Alpha  occ. eigenvalues --   -0.80678  -0.80086  -0.79212  -0.77194  -0.76642
 Alpha  occ. eigenvalues --   -0.73687  -0.71344  -0.70397  -0.68474  -0.67636
 Alpha  occ. eigenvalues --   -0.66618  -0.66060  -0.64511  -0.63910  -0.63779
 Alpha  occ. eigenvalues --   -0.63215  -0.62516  -0.61402  -0.61191  -0.61065
 Alpha  occ. eigenvalues --   -0.60850  -0.60498  -0.59090  -0.58597  -0.58377
 Alpha  occ. eigenvalues --   -0.57915  -0.57214  -0.56221  -0.56069  -0.55986
 Alpha  occ. eigenvalues --   -0.55913  -0.55076  -0.54608  -0.54395  -0.53552
 Alpha  occ. eigenvalues --   -0.53040  -0.52750  -0.52497  -0.52111  -0.51718
 Alpha  occ. eigenvalues --   -0.50785  -0.49963  -0.49513  -0.48775  -0.47929
 Alpha  occ. eigenvalues --   -0.47446  -0.46218  -0.45885  -0.43907  -0.43519
 Alpha  occ. eigenvalues --   -0.41241  -0.40818  -0.40199  -0.39032  -0.38599
 Alpha  occ. eigenvalues --   -0.38507  -0.38047  -0.33545
 Alpha virt. eigenvalues --    0.17484   0.17787   0.18480   0.19267   0.19918
 Alpha virt. eigenvalues --    0.21859   0.22283   0.23281   0.23572   0.24641
 Alpha virt. eigenvalues --    0.25663   0.25957   0.26299   0.27055   0.27649
 Alpha virt. eigenvalues --    0.27987   0.28418   0.28583   0.29075   0.29540
 Alpha virt. eigenvalues --    0.30188   0.30837   0.31100   0.31419   0.31669
 Alpha virt. eigenvalues --    0.31802   0.32322   0.32760   0.33747   0.33915
 Alpha virt. eigenvalues --    0.34385   0.34716   0.35098   0.35302   0.35660
 Alpha virt. eigenvalues --    0.35836   0.36724   0.37173   0.37750   0.38179
 Alpha virt. eigenvalues --    0.38799   0.38876   0.39665   0.39816   0.40694
 Alpha virt. eigenvalues --    0.41516   0.41939   0.42649   0.42911   0.43961
 Alpha virt. eigenvalues --    0.45049   0.45397   0.45957   0.46417   0.47158
 Alpha virt. eigenvalues --    0.47919   0.49144   0.49426   0.52444   0.52542
 Alpha virt. eigenvalues --    0.54299   0.55825   0.58036   0.59287   0.60116
 Alpha virt. eigenvalues --    0.61220   0.62711   0.64605   0.69488   0.70626
 Alpha virt. eigenvalues --    0.71306   0.71865   0.72692   0.72899   0.73568
 Alpha virt. eigenvalues --    0.73861   0.75062   0.75941   0.76510   0.76529
 Alpha virt. eigenvalues --    0.76863   0.77113   0.78057   0.78717   0.79356
 Alpha virt. eigenvalues --    0.79759   0.80195   0.80728   0.81162   0.82362
 Alpha virt. eigenvalues --    0.84003   0.84387   0.84961   0.85730   0.86491
 Alpha virt. eigenvalues --    0.87989   0.88551   0.88801   0.89645   0.90522
 Alpha virt. eigenvalues --    0.91501   0.92052   0.92660   0.92820   0.93909
 Alpha virt. eigenvalues --    0.94518   0.95324   0.96975   0.97340   0.98272
 Alpha virt. eigenvalues --    0.99057   0.99379   1.00151   1.00730   1.00767
 Alpha virt. eigenvalues --    1.01259   1.02596   1.02997   1.03419   1.03984
 Alpha virt. eigenvalues --    1.04529   1.05077   1.06629   1.06703   1.07629
 Alpha virt. eigenvalues --    1.07843   1.08531   1.09992   1.10629   1.11039
 Alpha virt. eigenvalues --    1.12206   1.12979   1.13468   1.13931   1.14355
 Alpha virt. eigenvalues --    1.14711   1.14900   1.15199   1.15687   1.15879
 Alpha virt. eigenvalues --    1.16694   1.16894   1.17113   1.17280   1.17830
 Alpha virt. eigenvalues --    1.18542   1.18683   1.18873   1.19514   1.19583
 Alpha virt. eigenvalues --    1.19959   1.20352   1.20762   1.21368   1.21577
 Alpha virt. eigenvalues --    1.22108   1.22216   1.22609   1.22885   1.23099
 Alpha virt. eigenvalues --    1.23694   1.24043   1.24565   1.25076   1.26143
 Alpha virt. eigenvalues --    1.26818   1.27982   1.28552   1.28925   1.29327
 Alpha virt. eigenvalues --    1.29958   1.31131   1.31394   1.31840   1.32588
 Alpha virt. eigenvalues --    1.33321   1.35760   1.36061   1.36556   1.37387
 Alpha virt. eigenvalues --    1.39108   1.40606   1.41169   1.42552   1.43898
 Alpha virt. eigenvalues --    1.44882   1.46433   1.48006   1.48191   1.49102
 Alpha virt. eigenvalues --    1.49983   1.51779   1.53097   1.54612   1.55492
 Alpha virt. eigenvalues --    1.57487   1.57746   1.58982   1.61043   1.61677
 Alpha virt. eigenvalues --    1.62287   1.64790   1.65809   1.67242   1.69554
 Alpha virt. eigenvalues --    1.70808   1.72037   1.72293   1.72543   1.73571
 Alpha virt. eigenvalues --    1.74889   1.76332   1.77664   1.79022   1.80598
 Alpha virt. eigenvalues --    1.81446   1.82929   1.83536   1.87020   1.87907
 Alpha virt. eigenvalues --    1.89902   1.90264   1.91720   1.92665   1.94628
 Alpha virt. eigenvalues --    1.96265   1.97963   1.98567   1.98966   2.00773
 Alpha virt. eigenvalues --    2.04960   2.05037   2.06980   2.07486   2.09150
 Alpha virt. eigenvalues --    2.09436   2.10670   2.11493   2.12097   2.12444
 Alpha virt. eigenvalues --    2.12854   2.13855   2.14628   2.15531   2.16567
 Alpha virt. eigenvalues --    2.17253   2.18245   2.18916   2.19437   2.20404
 Alpha virt. eigenvalues --    2.21463   2.21835   2.23118   2.24218   2.24584
 Alpha virt. eigenvalues --    2.25660   2.26025   2.26862   2.27411   2.27972
 Alpha virt. eigenvalues --    2.29230   2.29447   2.30568   2.31994   2.32994
 Alpha virt. eigenvalues --    2.33194   2.34266   2.34653   2.35174   2.36570
 Alpha virt. eigenvalues --    2.37085   2.37566   2.38435   2.38978   2.39643
 Alpha virt. eigenvalues --    2.40652   2.42399   2.43534   2.44017   2.45798
 Alpha virt. eigenvalues --    2.46314   2.47779   2.48324   2.49658   2.51649
 Alpha virt. eigenvalues --    2.52468   2.52899   2.54159   2.54582   2.55330
 Alpha virt. eigenvalues --    2.56618   2.57578   2.59616   2.60278   2.61789
 Alpha virt. eigenvalues --    2.62786   2.63333   2.63763   2.64810   2.65432
 Alpha virt. eigenvalues --    2.69076   2.69406   2.70558   2.71477   2.72824
 Alpha virt. eigenvalues --    2.73610   2.74246   2.74890   2.75204   2.76118
 Alpha virt. eigenvalues --    2.77254   2.78058   2.79327   2.79746   2.80895
 Alpha virt. eigenvalues --    2.82549   2.82876   2.84978   2.85639   2.86640
 Alpha virt. eigenvalues --    2.88583   2.89893   2.90596   2.92409   2.93474
 Alpha virt. eigenvalues --    2.96108   2.98413   2.99911   3.01295   3.03609
 Alpha virt. eigenvalues --    3.03985   3.05207   3.05826   3.07583   3.07896
 Alpha virt. eigenvalues --    3.09416   3.11322   3.11932   3.13528   3.16194
 Alpha virt. eigenvalues --    3.18872   3.19555   3.22926   3.27065   3.30868
 Alpha virt. eigenvalues --    3.34652   3.36946   3.38908   3.40794   3.42021
 Alpha virt. eigenvalues --    3.42698   3.42958   3.53022   3.55962   3.57844
 Alpha virt. eigenvalues --    3.59271   4.38656   4.38910   4.46091   4.49450
 Alpha virt. eigenvalues --    4.52147   4.52647   4.54904   4.57517   4.61800
 Alpha virt. eigenvalues --    4.64071   4.66488   4.67021   4.68028   4.70059
 Alpha virt. eigenvalues --    4.70701   4.75965   4.78898   4.84116   4.84450
 Alpha virt. eigenvalues --    4.89716   4.90398   4.94120   4.94911   4.99862
 Alpha virt. eigenvalues --    5.01947   5.08250   5.23869   5.26281
          Condensed to atoms (all electrons):
 Mulliken atomic charges:
              1
     1  C   -0.283641
     2  N   -0.778335
     3  C    0.772612
     4  O   -0.614740
     5  C    0.092238
     6  C   -0.443986
     7  C   -0.328783
     8  C   -0.303599
     9  C   -0.372699
    10  C   -0.167847
    11  C   -0.177836
    12  C   -0.352630
    13  C   -0.310755
    14  C   -0.328425
    15  C    0.090843
    16  C   -0.509450
    17  N   -0.787508
    18  C    0.767271
    19  C   -0.595628
    20  O   -0.614756
    21  C    0.820815
    22  O   -0.639282
    23  N   -0.806073
    24  C   -0.275020
    25  N   -0.832968
    26  C    0.742815
    27  C   -0.586609
    28  O   -0.588818
    29  H    0.173100
    30  H    0.211721
    31  H    0.171174
    32  H    0.375811
    33  H    0.201331
    34  H    0.169405
    35  H    0.159317
    36  H    0.233601
    37  H    0.186345
    38  H    0.165075
    39  H    0.161590
    40  H    0.197004
    41  H    0.169520
    42  H    0.171434
    43  H    0.166592
    44  H    0.179025
    45  H    0.160697
    46  H    0.149741
    47  H    0.197794
    48  H    0.173694
    49  H    0.184140
    50  H    0.183847
    51  H    0.147670
    52  H    0.225581
    53  H    0.390437
    54  H    0.210412
    55  H    0.209325
    56  H    0.176785
    57  H    0.394946
    58  H    0.163387
    59  H    0.199448
    60  H    0.184636
    61  H    0.373361
    62  H    0.223002
    63  H    0.185000
    64  H    0.186843
 Sum of Mulliken atomic charges =   0.00000
 Mulliken charges with hydrogens summed into heavy atoms:
              1
     1  C    0.272354
     2  N   -0.402524
     3  C    0.772612
     4  O   -0.614740
     5  C    0.092238
     6  C    0.086066
     7  C    0.091163
     8  C    0.023067
     9  C   -0.006175
    10  C    0.003588
    11  C   -0.011244
    12  C   -0.012907
    13  C    0.036779
    14  C    0.029410
    15  C    0.090843
    16  C    0.047648
    17  N   -0.397071
    18  C    0.767271
    19  C    0.000894
    20  O   -0.614756
    21  C    0.820815
    22  O   -0.639282
    23  N   -0.411127
    24  C    0.272452
    25  N   -0.459608
    26  C    0.742815
    27  C    0.008236
    28  O   -0.588818
 Sum of Mulliken charges with hydrogens summed into heavy atoms =   0.00000
 Electronic spatial extent (au):  <R**2>=          20799.2923
 Charge=              0.0000 electrons
 Dipole moment (field-independent basis, Debye):
    X=             -5.7196    Y=              0.5734    Z=              5.0794  Tot=              7.6709
 Quadrupole moment (field-independent basis, Debye-Ang):
   XX=           -166.6219   YY=           -168.9360   ZZ=           -168.2939
   XY=            -19.2528   XZ=            -13.9298   YZ=             17.2285
 Traceless Quadrupole moment (field-independent basis, Debye-Ang):
   XX=              1.3287   YY=             -0.9854   ZZ=             -0.3433
   XY=            -19.2528   XZ=            -13.9298   YZ=             17.2285
 Octapole moment (field-independent basis, Debye-Ang**2):
  XXX=           -526.8613  YYY=             53.9296  ZZZ=             23.3847  XYY=             94.3998
  XXY=            -11.9537  XXZ=            100.1154  XZZ=             -6.3455  YZZ=             -5.6991
  YYZ=             16.0449  XYZ=             -1.4561
 Hexadecapole moment (field-independent basis, Debye-Ang**3):
 XXXX=         -23203.4362 YYYY=          -2592.7142 ZZZZ=          -1576.5852 XXXY=           -789.4601
 XXXZ=           -906.9950 YYYX=             20.6141 YYYZ=             77.6133 ZZZX=            -74.5012
 ZZZY=             24.8403 XXYY=          -4142.3835 XXZZ=          -3925.2193 YYZZ=           -714.2636
 XXYZ=            327.7292 YYXZ=            -66.6555 ZZXY=             41.4914
 N-N= 2.704500230066D+03 E-N=-8.441510749402D+03  KE= 1.294253691446D+03
 1\1\GINC-MOSURA\SP\RHF\6-31G(d)\C20H36N4O4\MARIE\05-Dec-2019\0\\#SP HF
 /6-31G* Geom=(ModRedundant)\\paramfit run\\0,1\C,0,0.,0.,0.\N,0,1.4481
 87,0.,0.\C,0,2.1232,0.47592,1.072365\O,0,1.590179,0.696732,2.124447\C,
 0,3.650505,0.594143,0.921539\C,0,4.198902,1.549248,1.986845\C,0,4.3077
 51,-0.809116,1.023981\C,0,4.133566,-1.622781,2.319066\C,0,2.832729,-2.
 433298,2.484965\C,0,2.579342,-3.423586,1.372579\C,0,2.834093,-4.721989
 ,1.375535\C,0,3.442731,-5.535663,2.492337\C,0,2.42774,-6.370218,3.2941
 33\C,0,1.693892,-7.402618,2.427801\C,0,0.774274,-8.428536,3.139447\C,0
 ,0.118887,-9.296969,2.053288\N,0,1.59533,-9.267679,4.001559\C,0,1.0367
 79,-10.167772,4.862321\C,0,1.96438,-10.678762,5.940862\O,0,-0.103289,-
 10.530888,4.775526\C,0,-0.228361,-7.657085,4.027316\O,0,0.090004,-7.29
 6707,5.128542\N,0,-1.416619,-7.323616,3.478843\C,0,-2.421442,-6.64525,
 4.271531\N,0,3.997412,1.070275,-0.425452\C,0,4.76719,0.364773,-1.30259
 6\C,0,4.714335,0.847939,-2.737126\O,0,5.446873,-0.56275,-0.965147\H,0,
 -0.403259,1.006147,0.\H,0,-0.36496,-0.516002,0.875939\H,0,-0.345658,-0
 .522086,-0.883346\H,0,1.904244,0.070913,-0.879357\H,0,3.932135,1.22176
 ,2.980082\H,0,5.28092,1.595925,1.9075\H,0,3.792711,2.540594,1.848395\H
 ,0,5.374584,-0.64325,0.891407\H,0,3.984642,-1.403324,0.174983\H,0,4.96
 1565,-2.324757,2.354635\H,0,4.250121,-0.975721,3.182259\H,0,1.985724,-
 1.764045,2.562723\H,0,2.895638,-2.94811,3.437249\H,0,2.135502,-3.00918
 1,0.481856\H,0,2.579482,-5.276386,0.485828\H,0,3.971519,-4.889909,3.18
 2881\H,0,4.191817,-6.202016,2.066382\H,0,2.965623,-6.85691,4.102952\H,
 0,1.714584,-5.707921,3.766998\H,0,2.42081,-7.979938,1.860503\H,0,1.083
 167,-6.875737,1.704087\H,0,0.891187,-9.872528,1.556434\H,0,-0.36551,-8
 .684705,1.299714\H,0,-0.597925,-9.98679,2.472891\H,0,2.435807,-8.84784
 ,4.327205\H,0,1.585188,-11.616367,6.31792\H,0,1.981002,-9.957975,6.752
 844\H,0,2.97817,-10.810647,5.57862\H,0,-1.730263,-7.831365,2.685667\H,
 0,-3.24021,-6.362494,3.623002\H,0,-1.998054,-5.755067,4.713054\H,0,-2.
 799425,-7.276973,5.068907\H,0,3.368199,1.732287,-0.82216\H,0,5.603631,
 0.513485,-3.251194\H,0,4.637414,1.927351,-2.804223\H,0,3.848274,0.4147
 88,-3.227146\\Version=EM64L-G09RevA.02\State=1-A\HF=-1295.577963\RMSD=
 7.880e-09\Dipole=-0.0303336,1.3934376,-2.6768478\Quadrupole=-4.0685783
 ,0.7057733,3.3628049,-9.978976,14.2337193,-12.6745811\PG=C01 [X(C20H36
 N4O4)]\\@


 DESK:  A WASTEBASKET WITH DRAWERS.
 Job cpu time:  0 days  0 hours  5 minutes 24.9 seconds.
 File lengths (MBytes):  RWF=    132 Int=      0 D2E=      0 Chk=     10 Scr=      1
 Normal termination of Gaussian 09 at Thu Dec  5 16:31:46 2019.
