 Entering Gaussian System, Link 0=g09
 Input=PHI_-20.gau
 Output=PHI_-20.log
 Initial command:
 /home/marie/Utilities//g09/l1.exe /tmp/g09/Gau-3626.inp -scrdir=/tmp/g09/
 Entering Link 1 = /home/marie/Utilities//g09/l1.exe PID=      3628.
  
 Copyright (c) 1988,1990,1992,1993,1995,1998,2003,2009, Gaussian, Inc.
                  All Rights Reserved.
  
 This is part of the Gaussian(R) 09 program.  It is based on
 the Gaussian(R) 03 system (copyright 2003, Gaussian, Inc.),
 the Gaussian(R) 98 system (copyright 1998, Gaussian, Inc.),
 the Gaussian(R) 94 system (copyright 1995, Gaussian, Inc.),
 the Gaussian 92(TM) system (copyright 1992, Gaussian, Inc.),
 the Gaussian 90(TM) system (copyright 1990, Gaussian, Inc.),
 the Gaussian 88(TM) system (copyright 1988, Gaussian, Inc.),
 the Gaussian 86(TM) system (copyright 1986, Carnegie Mellon
 University), and the Gaussian 82(TM) system (copyright 1983,
 Carnegie Mellon University). Gaussian is a federally registered
 trademark of Gaussian, Inc.
  
 This software contains proprietary and confidential information,
 including trade secrets, belonging to Gaussian, Inc.
  
 This software is provided under written license and may be
 used, copied, transmitted, or stored only in accord with that
 written license.
  
 The following legend is applicable only to US Government
 contracts under FAR:
  
                    RESTRICTED RIGHTS LEGEND
  
 Use, reproduction and disclosure by the US Government is
 subject to restrictions as set forth in subparagraphs (a)
 and (c) of the Commercial Computer Software - Restricted
 Rights clause in FAR 52.227-19.
  
 Gaussian, Inc.
 340 Quinnipiac St., Bldg. 40, Wallingford CT 06492
  
  
 ---------------------------------------------------------------
 Warning -- This program may not be used in any manner that
 competes with the business of Gaussian, Inc. or will provide
 assistance to any competitor of Gaussian, Inc.  The licensee
 of this program is prohibited from giving any competitor of
 Gaussian, Inc. access to this program.  By using this program,
 the user acknowledges that Gaussian, Inc. is engaged in the
 business of creating and licensing software in the field of
 computational chemistry and represents and warrants to the
 licensee that it is not a competitor of Gaussian, Inc. and that
 it will not use this program in any manner prohibited above.
 ---------------------------------------------------------------
  

 Cite this work as:
 Gaussian 09, Revision A.02,
 M. J. Frisch, G. W. Trucks, H. B. Schlegel, G. E. Scuseria, 
 M. A. Robb, J. R. Cheeseman, G. Scalmani, V. Barone, B. Mennucci, 
 G. A. Petersson, H. Nakatsuji, M. Caricato, X. Li, H. P. Hratchian, 
 A. F. Izmaylov, J. Bloino, G. Zheng, J. L. Sonnenberg, M. Hada, 
 M. Ehara, K. Toyota, R. Fukuda, J. Hasegawa, M. Ishida, T. Nakajima, 
 Y. Honda, O. Kitao, H. Nakai, T. Vreven, J. A. Montgomery, Jr., 
 J. E. Peralta, F. Ogliaro, M. Bearpark, J. J. Heyd, E. Brothers, 
 K. N. Kudin, V. N. Staroverov, R. Kobayashi, J. Normand, 
 K. Raghavachari, A. Rendell, J. C. Burant, S. S. Iyengar, J. Tomasi, 
 M. Cossi, N. Rega, J. M. Millam, M. Klene, J. E. Knox, J. B. Cross, 
 V. Bakken, C. Adamo, J. Jaramillo, R. Gomperts, R. E. Stratmann, 
 O. Yazyev, A. J. Austin, R. Cammi, C. Pomelli, J. W. Ochterski, 
 R. L. Martin, K. Morokuma, V. G. Zakrzewski, G. A. Voth, 
 P. Salvador, J. J. Dannenberg, S. Dapprich, A. D. Daniels, 
 O. Farkas, J. B. Foresman, J. V. Ortiz, J. Cioslowski, 
 and D. J. Fox, Gaussian, Inc., Wallingford CT, 2009.
 
 ******************************************
 Gaussian 09:  EM64L-G09RevA.02 11-Jun-2009
                 5-Dec-2019 
 ******************************************
 %chk=PHI_-20
 %NoSave
 ---------------------------------
 #SP HF/6-31G* Geom=(ModRedundant)
 ---------------------------------
 1/18=120,38=1/1;
 2/12=2,17=6,18=5,40=1/2;
 3/5=1,6=6,7=1,11=9,16=1,25=1,30=1/1,2,3;
 4//1;
 5/5=2,38=5/2;
 6/7=2,8=2,9=2,10=2,28=1/1;
 99/5=1,9=1/99;
 ------------
 paramfit run
 ------------
 Symbolic Z-matrix:
 Charge =  0 Multiplicity = 1
 C-CT--0.3208          0.        0.        0. 
 N-N--0.5622           1.44819   0.        0. 
 C-C-0.8053            2.1232    0.47592   1.07237 
 O-O--0.6151           1.59018   0.69673   2.12445 
 C-CX-0.0839           3.65051   0.59414   0.92154 
 C-CU--0.3230          4.1989    1.54925   1.98685 
 C-CU--0.0657          4.30775  -0.80912   1.02398 
 C-CU--0.0109          4.13357  -1.62278   2.31907 
 C-CU-0.0816           2.83273  -2.4333    2.48497 
 C-CM--0.2354          2.57934  -3.42359   1.37258 
 C-CM--0.2653          2.83409  -4.72199   1.37554 
 C-CU-0.1214           3.44273  -5.53566   2.49234 
 C-CU--0.0354          2.42774  -6.37022   3.29413 
 C-CU--0.0984          1.69389  -7.40262   2.4278 
 C-CU-0.1300           0.77427  -8.42854   3.13945 
 C-CU--0.3561          0.11889  -9.29697   2.05329 
 N-N--0.7186           1.59533  -9.26768   4.00156 
 C-C-0.8537            1.03678  -10.16777   4.86232 
 C-CT--0.3868          1.96438  -10.67876   5.94086 
 O-O--0.6323          -0.10329  -10.53089   4.77553 
 C-C-0.7903           -0.22836  -7.65709   4.02732 
 O-O--0.6136           0.09     -7.29671   5.12854 
 N-N--0.5650          -1.41662  -7.32362   3.47884 
 C-CT--0.3231         -2.42144  -6.64525   4.27153 
 N-N--0.7191           3.99741   1.07028  -0.42545 
 C-C-0.8539            3.157     0.98971  -1.49639 
 C-CT--0.3903          3.54848   1.84116  -2.6863 
 O-O--0.6290           2.18532   0.28836  -1.50429 
 H-H1-0.1459          -0.40326   1.00615   0. 
 H-H1-0.1459          -0.36496  -0.516     0.87594 
 H-H1-0.1459          -0.34566  -0.52209  -0.88335 
 H-H-0.3572            1.90424   0.07091  -0.87936 
 H-HC-0.0997           3.93214   1.22176   2.98008 
 H-HC-0.0997           5.28092   1.59593   1.9075 
 H-HC-0.0997           3.79271   2.54059   1.8484 
 H-HC-0.0347           5.37458  -0.64325   0.89141 
 H-HC-0.0347           3.98464  -1.40332   0.17498 
 H-HC-0.0243           4.96157  -2.32476   2.35464 
 H-HC-0.0243           4.25012  -0.97572   3.18226 
 H-HC-0.0171           1.98572  -1.76405   2.56272 
 H-HC-0.0171           2.89564  -2.94811   3.43725 
 H-HA-0.1313           2.1355   -3.00918   0.48186 
 H-HA-0.1359           2.57948  -5.27639   0.48583 
 H-HC-0.0092           3.97152  -4.88991   3.18288 
 H-HC-0.0092           4.19182  -6.20202   2.06638 
 H-HC-0.0318           2.96562  -6.85691   4.10295 
 H-HC-0.0318           1.71458  -5.70792   3.767 
 H-HC-0.0435           2.42081  -7.97994   1.8605 
 H-HC-0.0435           1.08317  -6.87574   1.70409 
 H-HC-0.1066           0.89119  -9.87253   1.55643 
 H-HC-0.1066          -0.36551  -8.68471   1.29971 
 H-HC-0.1066          -0.59793  -9.98679   2.47289 
 H-H-0.3529            2.43581  -8.84784   4.32721 
 H-HC-0.1047           1.58519  -11.61637   6.31792 
 H-HC-0.1047           1.981    -9.95798   6.75284 
 H-HC-0.1047           2.97817  -10.81065   5.57862 
 H-H-0.3615           -1.73026  -7.83136   2.68567 
 H-H1-0.1469          -3.24021  -6.36249   3.623 
 H-H1-0.1469          -1.99805  -5.75507   4.71305 
 H-H1-0.1469          -2.79943  -7.27697   5.06891 
 H-H-0.3570            4.69639   1.77845  -0.46378 
 H-HC-0.1060           3.08687   1.43391  -3.57402 
 H-HC-0.1060           4.62319   1.88806  -2.82178 
 H-HC-0.1060           3.18065   2.85133  -2.53782 
 
 The following ModRedundant input section has been read:
 D    *    5   25    * F                                                       
 Stoichiometry    C20H36N4O4
 Framework group  C1[X(C20H36N4O4)]
 Deg. of freedom   186
 Full point group                 C1      NOp   1
 Largest Abelian subgroup         C1      NOp   1
 Largest concise Abelian subgroup C1      NOp   1
                         Standard orientation:                         
 ---------------------------------------------------------------------
 Center     Atomic      Atomic             Coordinates (Angstroms)
 Number     Number       Type             X           Y           Z
 ---------------------------------------------------------------------
      1          6    20001001       -3.949658    2.833028   -0.082827
      2          7    20001014       -4.283864    1.436476    0.104772
      3          6    20001002       -4.442296    0.629958   -0.970652
      4          8    20001024       -4.102792    0.953062   -2.075227
      5          6    90000001       -4.959231   -0.792209   -0.688506
      6          6    90000002       -5.517820   -1.400577   -1.979129
      7          6    90000002       -3.821403   -1.666232   -0.094339
      8          6    90000002       -2.548333   -1.902112   -0.926980
      9          6    90000002       -1.461414   -0.809253   -0.896941
     10          6    20001004       -0.958068   -0.480769    0.489067
     11          6    20001004        0.140234   -0.929037    1.075194
     12          6    90000002        1.162656   -1.881658    0.503426
     13          6    90000002        2.454681   -1.204343    0.012019
     14          6    90000002        3.203005   -0.471761    1.133737
     15          6    90000002        4.607990    0.103117    0.817229
     16          6    90000002        5.105921    0.832606    2.075545
     17          7    20001014        5.504067   -1.003779    0.511681
     18          6    20001002        6.772255   -0.789449    0.054714
     19          6    20001001        7.436575   -1.994385   -0.571075
     20          8    20001024        7.324549    0.272071    0.140090
     21          6    20001002        4.501176    0.999903   -0.437000
     22          8    20001024        4.539245    0.513165   -1.534982
     23          7    20001014        4.263172    2.315098   -0.243097
     24          6    20001001        4.202363    3.219893   -1.372633
     25          7    20001014       -5.992044   -0.764283    0.357414
     26          6    20001002       -6.146853    0.262923    1.240904
     27          6    20001001       -7.462414    0.272623    1.991454
     28          8    20001024       -5.301318    1.092563    1.422309
     29          1    20001035       -4.752340    3.378415   -0.565738
     30          1    20001035       -3.062132    2.917165   -0.692698
     31          1    20001035       -3.751917    3.274282    0.885959
     32          1    20001029       -4.797504    1.195987    0.920017
     33          1    20001034       -4.774729   -1.406922   -2.761886
     34          1    20001034       -5.840232   -2.419767   -1.787975
     35          1    20001034       -6.361008   -0.825021   -2.332251
     36          1    20001034       -4.267320   -2.640842    0.091439
     37          1    20001034       -3.551172   -1.265296    0.877517
     38          1    20001034       -2.100500   -2.817397   -0.551060
     39          1    20001034       -2.812376   -2.098677   -1.960913
     40          1    20001034       -1.831233    0.095007   -1.362680
     41          1    20001034       -0.643714   -1.153889   -1.520180
     42          1    20001033       -1.574298    0.202418    1.050876
     43          1    20001033        0.343231   -0.579248    2.075295
     44          1    20001034        0.736856   -2.438996   -0.322125
     45          1    20001034        1.415778   -2.616487    1.266675
     46          1    20001034        3.081406   -1.971927   -0.433408
     47          1    20001034        2.215297   -0.514837   -0.786797
     48          1    20001034        3.326484   -1.141101    1.982426
     49          1    20001034        2.590726    0.354098    1.476406
     50          1    20001034        5.245017    0.104694    2.866352
     51          1    20001034        4.376751    1.556316    2.424739
     52          1    20001034        6.050221    1.326718    1.902657
     53          1    20001029        5.064192   -1.818706    0.149582
     54          1    20001034        8.506851   -1.855289   -0.556113
     55          1    20001034        7.109850   -2.072148   -1.603707
     56          1    20001034        7.177803   -2.914985   -0.059297
     57          1    20001029        4.476164    2.708403    0.643049
     58          1    20001035        3.884953    4.192306   -1.019666
     59          1    20001035        3.485505    2.855536   -2.093732
     60          1    20001035        5.165071    3.315410   -1.864388
     61          1    20001029       -6.798865   -1.319977    0.179113
     62          1    20001034       -7.341863    0.844487    2.899975
     63          1    20001034       -7.805375   -0.727465    2.231770
     64          1    20001034       -8.218561    0.752682    1.378604
 ---------------------------------------------------------------------
 Rotational constants (GHZ):      0.3825904      0.0524276      0.0508107
 Standard basis: 6-31G(d) (6D, 7F)
 There are   492 symmetry adapted basis functions of A   symmetry.
 Integral buffers will be    131072 words long.
 Raffenetti 1 integral format.
 Two-electron integral symmetry is turned on.
   492 basis functions,   928 primitive gaussians,   492 cartesian basis functions
   108 alpha electrons      108 beta electrons
       nuclear repulsion energy      2725.6136633356 Hartrees.
 NAtoms=   64 NActive=   64 NUniq=   64 SFac= 7.50D-01 NAtFMM=   80 NAOKFM=F Big=T
 One-electron integrals computed using PRISM.
 NBasis=   492 RedAO= T  NBF=   492
 NBsUse=   492 1.00D-06 NBFU=   492
 Harris functional with IExCor=  205 diagonalized for initial guess.
 ExpMin= 1.61D-01 ExpMax= 5.48D+03 ExpMxC= 8.25D+02 IAcc=1 IRadAn=         1 AccDes= 0.00D+00
 HarFok:  IExCor=  205 AccDes= 0.00D+00 IRadAn=         1 IDoV= 1
 ScaDFX=  1.000000  1.000000  1.000000  1.000000
 FoFCou: FMM=F IPFlag=           0 FMFlag=      100000 FMFlg1=           1
         NFxFlg=           0 DoJE=T BraDBF=F KetDBF=T FulRan=T
         Omega=  0.000000  0.000000  1.000000  0.000000  0.000000 ICntrl=     500 IOpCl=  0
         NMat0=    1 NMatS0=    1 NMatT0=    0 NMatD0=    1 NMtDS0=    0 NMtDT0=    0
         I1Cent=           4 NGrid=           0.
 Petite list used in FoFCou.
 Initial guess orbital symmetries:
       Occupied  (A) (A) (A) (A) (A) (A) (A) (A) (A) (A) (A) (A)
                 (A) (A) (A) (A) (A) (A) (A) (A) (A) (A) (A) (A)
                 (A) (A) (A) (A) (A) (A) (A) (A) (A) (A) (A) (A)
                 (A) (A) (A) (A) (A) (A) (A) (A) (A) (A) (A) (A)
                 (A) (A) (A) (A) (A) (A) (A) (A) (A) (A) (A) (A)
                 (A) (A) (A) (A) (A) (A) (A) (A) (A) (A) (A) (A)
                 (A) (A) (A) (A) (A) (A) (A) (A) (A) (A) (A) (A)
                 (A) (A) (A) (A) (A) (A) (A) (A) (A) (A) (A) (A)
                 (A) (A) (A) (A) (A) (A) (A) (A) (A) (A) (A) (A)
       Virtual   (A) (A) (A) (A) (A) (A) (A) (A) (A) (A) (A) (A)
                 (A) (A) (A) (A) (A) (A) (A) (A) (A) (A) (A) (A)
                 (A) (A) (A) (A) (A) (A) (A) (A) (A) (A) (A) (A)
                 (A) (A) (A) (A) (A) (A) (A) (A) (A) (A) (A) (A)
                 (A) (A) (A) (A) (A) (A) (A) (A) (A) (A) (A) (A)
                 (A) (A) (A) (A) (A) (A) (A) (A) (A) (A) (A) (A)
                 (A) (A) (A) (A) (A) (A) (A) (A) (A) (A) (A) (A)
                 (A) (A) (A) (A) (A) (A) (A) (A) (A) (A) (A) (A)
                 (A) (A) (A) (A) (A) (A) (A) (A) (A) (A) (A) (A)
                 (A) (A) (A) (A) (A) (A) (A) (A) (A) (A) (A) (A)
                 (A) (A) (A) (A) (A) (A) (A) (A) (A) (A) (A) (A)
                 (A) (A) (A) (A) (A) (A) (A) (A) (A) (A) (A) (A)
                 (A) (A) (A) (A) (A) (A) (A) (A) (A) (A) (A) (A)
                 (A) (A) (A) (A) (A) (A) (A) (A) (A) (A) (A) (A)
                 (A) (A) (A) (A) (A) (A) (A) (A) (A) (A) (A) (A)
                 (A) (A) (A) (A) (A) (A) (A) (A) (A) (A) (A) (A)
                 (A) (A) (A) (A) (A) (A) (A) (A) (A) (A) (A) (A)
                 (A) (A) (A) (A) (A) (A) (A) (A) (A) (A) (A) (A)
                 (A) (A) (A) (A) (A) (A) (A) (A) (A) (A) (A) (A)
                 (A) (A) (A) (A) (A) (A) (A) (A) (A) (A) (A) (A)
                 (A) (A) (A) (A) (A) (A) (A) (A) (A) (A) (A) (A)
                 (A) (A) (A) (A) (A) (A) (A) (A) (A) (A) (A) (A)
                 (A) (A) (A) (A) (A) (A) (A) (A) (A) (A) (A) (A)
                 (A) (A) (A) (A) (A) (A) (A) (A) (A) (A) (A) (A)
                 (A) (A) (A) (A) (A) (A) (A) (A) (A) (A) (A) (A)
                 (A) (A) (A) (A) (A) (A) (A) (A) (A) (A) (A) (A)
                 (A) (A) (A) (A) (A) (A) (A) (A) (A) (A) (A) (A)
                 (A) (A) (A) (A) (A) (A) (A) (A) (A) (A) (A) (A)
                 (A) (A) (A) (A) (A) (A) (A) (A) (A) (A) (A) (A)
                 (A) (A) (A) (A) (A) (A) (A) (A) (A) (A) (A) (A)
                 (A) (A) (A) (A) (A) (A) (A) (A) (A) (A) (A) (A)
                 (A) (A) (A) (A) (A) (A) (A) (A) (A) (A) (A) (A)
 The electronic state of the initial guess is 1-A.
 Requested convergence on RMS density matrix=1.00D-08 within 128 cycles.
 Requested convergence on MAX density matrix=1.00D-06.
 Requested convergence on             energy=1.00D-06.
 No special actions if energy rises.
 Integral accuracy reduced to 1.0D-05 until final iterations.
 Initial convergence to 1.0D-05 achieved.  Increase integral accuracy.
 SCF Done:  E(RHF) =  -1295.17148705     A.U. after   15 cycles
             Convg  =    0.7802D-08             -V/T =  1.9993

 **********************************************************************

            Population analysis using the SCF density.

 **********************************************************************

 Orbital symmetries:
       Occupied  (A) (A) (A) (A) (A) (A) (A) (A) (A) (A) (A) (A)
                 (A) (A) (A) (A) (A) (A) (A) (A) (A) (A) (A) (A)
                 (A) (A) (A) (A) (A) (A) (A) (A) (A) (A) (A) (A)
                 (A) (A) (A) (A) (A) (A) (A) (A) (A) (A) (A) (A)
                 (A) (A) (A) (A) (A) (A) (A) (A) (A) (A) (A) (A)
                 (A) (A) (A) (A) (A) (A) (A) (A) (A) (A) (A) (A)
                 (A) (A) (A) (A) (A) (A) (A) (A) (A) (A) (A) (A)
                 (A) (A) (A) (A) (A) (A) (A) (A) (A) (A) (A) (A)
                 (A) (A) (A) (A) (A) (A) (A) (A) (A) (A) (A) (A)
       Virtual   (A) (A) (A) (A) (A) (A) (A) (A) (A) (A) (A) (A)
                 (A) (A) (A) (A) (A) (A) (A) (A) (A) (A) (A) (A)
                 (A) (A) (A) (A) (A) (A) (A) (A) (A) (A) (A) (A)
                 (A) (A) (A) (A) (A) (A) (A) (A) (A) (A) (A) (A)
                 (A) (A) (A) (A) (A) (A) (A) (A) (A) (A) (A) (A)
                 (A) (A) (A) (A) (A) (A) (A) (A) (A) (A) (A) (A)
                 (A) (A) (A) (A) (A) (A) (A) (A) (A) (A) (A) (A)
                 (A) (A) (A) (A) (A) (A) (A) (A) (A) (A) (A) (A)
                 (A) (A) (A) (A) (A) (A) (A) (A) (A) (A) (A) (A)
                 (A) (A) (A) (A) (A) (A) (A) (A) (A) (A) (A) (A)
                 (A) (A) (A) (A) (A) (A) (A) (A) (A) (A) (A) (A)
                 (A) (A) (A) (A) (A) (A) (A) (A) (A) (A) (A) (A)
                 (A) (A) (A) (A) (A) (A) (A) (A) (A) (A) (A) (A)
                 (A) (A) (A) (A) (A) (A) (A) (A) (A) (A) (A) (A)
                 (A) (A) (A) (A) (A) (A) (A) (A) (A) (A) (A) (A)
                 (A) (A) (A) (A) (A) (A) (A) (A) (A) (A) (A) (A)
                 (A) (A) (A) (A) (A) (A) (A) (A) (A) (A) (A) (A)
                 (A) (A) (A) (A) (A) (A) (A) (A) (A) (A) (A) (A)
                 (A) (A) (A) (A) (A) (A) (A) (A) (A) (A) (A) (A)
                 (A) (A) (A) (A) (A) (A) (A) (A) (A) (A) (A) (A)
                 (A) (A) (A) (A) (A) (A) (A) (A) (A) (A) (A) (A)
                 (A) (A) (A) (A) (A) (A) (A) (A) (A) (A) (A) (A)
                 (A) (A) (A) (A) (A) (A) (A) (A) (A) (A) (A) (A)
                 (A) (A) (A) (A) (A) (A) (A) (A) (A) (A) (A) (A)
                 (A) (A) (A) (A) (A) (A) (A) (A) (A) (A) (A) (A)
                 (A) (A) (A) (A) (A) (A) (A) (A) (A) (A) (A) (A)
                 (A) (A) (A) (A) (A) (A) (A) (A) (A) (A) (A) (A)
                 (A) (A) (A) (A) (A) (A) (A) (A) (A) (A) (A) (A)
                 (A) (A) (A) (A) (A) (A) (A) (A) (A) (A) (A) (A)
                 (A) (A) (A) (A) (A) (A) (A) (A) (A) (A) (A) (A)
                 (A) (A) (A) (A) (A) (A) (A) (A) (A) (A) (A) (A)
                 (A) (A) (A) (A) (A) (A) (A) (A) (A) (A) (A) (A)
 The electronic state is 1-A.
 Alpha  occ. eigenvalues --  -20.58675 -20.51588 -20.50997 -20.47259 -15.63820
 Alpha  occ. eigenvalues --  -15.57302 -15.57003 -15.43147 -11.42381 -11.33797
 Alpha  occ. eigenvalues --  -11.33086 -11.29232 -11.28822 -11.28036 -11.27965
 Alpha  occ. eigenvalues --  -11.24395 -11.22674 -11.22504 -11.22497 -11.22122
 Alpha  occ. eigenvalues --  -11.21602 -11.21523 -11.21469 -11.21260 -11.20906
 Alpha  occ. eigenvalues --  -11.20672 -11.20269 -11.20113  -1.61732  -1.38847
 Alpha  occ. eigenvalues --   -1.37554  -1.34480  -1.30212  -1.23017  -1.22017
 Alpha  occ. eigenvalues --   -1.19458  -1.09866  -1.08984  -1.07011  -1.05187
 Alpha  occ. eigenvalues --   -1.02765  -0.99518  -0.98461  -0.98316  -0.94549
 Alpha  occ. eigenvalues --   -0.94044  -0.92367  -0.90598  -0.86611  -0.85121
 Alpha  occ. eigenvalues --   -0.82226  -0.81220  -0.79050  -0.78759  -0.76308
 Alpha  occ. eigenvalues --   -0.73400  -0.71146  -0.70639  -0.70120  -0.67876
 Alpha  occ. eigenvalues --   -0.67326  -0.65619  -0.65301  -0.63687  -0.63004
 Alpha  occ. eigenvalues --   -0.62735  -0.61511  -0.61189  -0.60971  -0.60763
 Alpha  occ. eigenvalues --   -0.60458  -0.59930  -0.59679  -0.58687  -0.58125
 Alpha  occ. eigenvalues --   -0.57734  -0.57249  -0.56639  -0.55909  -0.55735
 Alpha  occ. eigenvalues --   -0.55625  -0.54831  -0.54384  -0.54232  -0.54153
 Alpha  occ. eigenvalues --   -0.53075  -0.52486  -0.51611  -0.51470  -0.50569
 Alpha  occ. eigenvalues --   -0.49999  -0.49309  -0.48888  -0.48157  -0.47909
 Alpha  occ. eigenvalues --   -0.47330  -0.46658  -0.45625  -0.43552  -0.43297
 Alpha  occ. eigenvalues --   -0.40944  -0.40586  -0.38283  -0.37808  -0.37694
 Alpha  occ. eigenvalues --   -0.33255  -0.33202  -0.28321
 Alpha virt. eigenvalues --    0.12497   0.18374   0.18777   0.20189   0.22138
 Alpha virt. eigenvalues --    0.22307   0.22597   0.23404   0.23837   0.24510
 Alpha virt. eigenvalues --    0.25613   0.26141   0.26682   0.27083   0.27924
 Alpha virt. eigenvalues --    0.28164   0.28514   0.28945   0.29456   0.29770
 Alpha virt. eigenvalues --    0.29990   0.30760   0.31264   0.31595   0.32036
 Alpha virt. eigenvalues --    0.32890   0.33223   0.33764   0.34077   0.34429
 Alpha virt. eigenvalues --    0.34714   0.35072   0.35467   0.36088   0.36141
 Alpha virt. eigenvalues --    0.36599   0.37436   0.37702   0.38103   0.38849
 Alpha virt. eigenvalues --    0.39094   0.39573   0.40125   0.40419   0.41177
 Alpha virt. eigenvalues --    0.41728   0.42652   0.43238   0.43669   0.44826
 Alpha virt. eigenvalues --    0.45596   0.46116   0.46510   0.47318   0.48123
 Alpha virt. eigenvalues --    0.48482   0.49316   0.49702   0.52809   0.54488
 Alpha virt. eigenvalues --    0.55577   0.57332   0.58330   0.60252   0.60314
 Alpha virt. eigenvalues --    0.63196   0.65029   0.65775   0.69235   0.70168
 Alpha virt. eigenvalues --    0.70990   0.71311   0.71861   0.72262   0.73360
 Alpha virt. eigenvalues --    0.73430   0.74090   0.75778   0.76069   0.76821
 Alpha virt. eigenvalues --    0.76964   0.77640   0.78266   0.79246   0.79653
 Alpha virt. eigenvalues --    0.80349   0.80585   0.81233   0.82517   0.82730
 Alpha virt. eigenvalues --    0.83354   0.84583   0.85805   0.86213   0.86561
 Alpha virt. eigenvalues --    0.87547   0.88703   0.89013   0.89578   0.90509
 Alpha virt. eigenvalues --    0.91681   0.92125   0.92998   0.93724   0.94102
 Alpha virt. eigenvalues --    0.95193   0.95931   0.96493   0.97191   0.97773
 Alpha virt. eigenvalues --    0.99469   0.99892   1.00754   1.01136   1.02039
 Alpha virt. eigenvalues --    1.02337   1.03133   1.04273   1.04664   1.05228
 Alpha virt. eigenvalues --    1.05900   1.06202   1.06854   1.07808   1.08128
 Alpha virt. eigenvalues --    1.08918   1.09927   1.10205   1.10884   1.11620
 Alpha virt. eigenvalues --    1.12753   1.13761   1.13976   1.14379   1.14866
 Alpha virt. eigenvalues --    1.15065   1.15469   1.15757   1.15851   1.16092
 Alpha virt. eigenvalues --    1.16826   1.17384   1.17582   1.17976   1.18434
 Alpha virt. eigenvalues --    1.18824   1.19028   1.19219   1.19509   1.19896
 Alpha virt. eigenvalues --    1.20285   1.20734   1.21678   1.21843   1.22144
 Alpha virt. eigenvalues --    1.22401   1.22863   1.23432   1.23685   1.24160
 Alpha virt. eigenvalues --    1.24478   1.25237   1.25670   1.26704   1.27318
 Alpha virt. eigenvalues --    1.27821   1.28486   1.29404   1.29674   1.30101
 Alpha virt. eigenvalues --    1.30408   1.31646   1.31830   1.33080   1.34633
 Alpha virt. eigenvalues --    1.35678   1.36393   1.37589   1.39376   1.39891
 Alpha virt. eigenvalues --    1.41581   1.42649   1.43415   1.45200   1.46777
 Alpha virt. eigenvalues --    1.48003   1.48913   1.49061   1.49684   1.51620
 Alpha virt. eigenvalues --    1.52375   1.53373   1.54858   1.55649   1.56674
 Alpha virt. eigenvalues --    1.58013   1.59531   1.61327   1.62071   1.62521
 Alpha virt. eigenvalues --    1.64419   1.65607   1.67575   1.68560   1.70464
 Alpha virt. eigenvalues --    1.70998   1.72374   1.72916   1.74043   1.75513
 Alpha virt. eigenvalues --    1.76750   1.79268   1.80976   1.81119   1.81826
 Alpha virt. eigenvalues --    1.83326   1.83808   1.85255   1.87490   1.89678
 Alpha virt. eigenvalues --    1.90356   1.90973   1.92333   1.93117   1.95188
 Alpha virt. eigenvalues --    1.95662   1.96923   1.99145   2.00445   2.02093
 Alpha virt. eigenvalues --    2.04525   2.05343   2.06706   2.07733   2.08232
 Alpha virt. eigenvalues --    2.10010   2.10256   2.11798   2.12929   2.13559
 Alpha virt. eigenvalues --    2.14303   2.15118   2.16202   2.16890   2.16990
 Alpha virt. eigenvalues --    2.18114   2.18768   2.19680   2.19884   2.20771
 Alpha virt. eigenvalues --    2.21812   2.22402   2.23333   2.24040   2.25587
 Alpha virt. eigenvalues --    2.26389   2.27245   2.27967   2.28710   2.29547
 Alpha virt. eigenvalues --    2.30169   2.31270   2.32526   2.33466   2.33713
 Alpha virt. eigenvalues --    2.34732   2.36280   2.36878   2.37649   2.37882
 Alpha virt. eigenvalues --    2.38628   2.39897   2.40131   2.40754   2.41233
 Alpha virt. eigenvalues --    2.42676   2.43295   2.43723   2.44780   2.46461
 Alpha virt. eigenvalues --    2.46862   2.47970   2.48675   2.49866   2.51305
 Alpha virt. eigenvalues --    2.52251   2.52973   2.53093   2.55640   2.56792
 Alpha virt. eigenvalues --    2.57600   2.57843   2.59962   2.61724   2.62536
 Alpha virt. eigenvalues --    2.63730   2.64458   2.65177   2.65759   2.67049
 Alpha virt. eigenvalues --    2.67873   2.69643   2.69796   2.70755   2.72671
 Alpha virt. eigenvalues --    2.74158   2.74438   2.75865   2.76947   2.77500
 Alpha virt. eigenvalues --    2.78509   2.79854   2.80212   2.81594   2.82916
 Alpha virt. eigenvalues --    2.84034   2.85372   2.86354   2.86943   2.88749
 Alpha virt. eigenvalues --    2.91563   2.92565   2.93466   2.95021   2.96428
 Alpha virt. eigenvalues --    2.97770   2.99092   3.01433   3.04119   3.05763
 Alpha virt. eigenvalues --    3.06105   3.07711   3.07784   3.11565   3.11692
 Alpha virt. eigenvalues --    3.11801   3.13731   3.15646   3.16526   3.18018
 Alpha virt. eigenvalues --    3.19101   3.22178   3.24113   3.31154   3.32455
 Alpha virt. eigenvalues --    3.33162   3.34947   3.41048   3.42473   3.43264
 Alpha virt. eigenvalues --    3.45867   3.56283   3.57221   3.58121   3.63310
 Alpha virt. eigenvalues --    4.19779   4.39017   4.41966   4.49714   4.52389
 Alpha virt. eigenvalues --    4.52941   4.56601   4.59206   4.62282   4.63498
 Alpha virt. eigenvalues --    4.66178   4.67674   4.69342   4.70636   4.72232
 Alpha virt. eigenvalues --    4.77211   4.78970   4.83969   4.84790   4.90014
 Alpha virt. eigenvalues --    4.90701   4.94426   4.96494   5.00236   5.03270
 Alpha virt. eigenvalues --    5.10849   5.14112   5.24158   5.25701
          Condensed to atoms (all electrons):
 Mulliken atomic charges:
              1
     1  C   -0.252226
     2  N   -0.912535
     3  C    0.750628
     4  O   -0.670112
     5  C    0.078616
     6  C   -0.484762
     7  C   -0.272455
     8  C   -0.316103
     9  C   -0.372736
    10  C   -0.179937
    11  C   -0.182542
    12  C   -0.350751
    13  C   -0.309782
    14  C   -0.328739
    15  C    0.090744
    16  C   -0.509592
    17  N   -0.787732
    18  C    0.767466
    19  C   -0.595514
    20  O   -0.614526
    21  C    0.821085
    22  O   -0.639954
    23  N   -0.805058
    24  C   -0.275389
    25  N   -0.808270
    26  C    0.746995
    27  C   -0.580578
    28  O   -0.282301
    29  H    0.133894
    30  H    0.168952
    31  H    0.133822
    32  H    0.284487
    33  H    0.230476
    34  H    0.146786
    35  H    0.175130
    36  H    0.149377
    37  H    0.181475
    38  H    0.159224
    39  H    0.168003
    40  H    0.227891
    41  H    0.167078
    42  H    0.194280
    43  H    0.166115
    44  H    0.175492
    45  H    0.156218
    46  H    0.147677
    47  H    0.200281
    48  H    0.171622
    49  H    0.187278
    50  H    0.182484
    51  H    0.149260
    52  H    0.225188
    53  H    0.389890
    54  H    0.209988
    55  H    0.209269
    56  H    0.175850
    57  H    0.394871
    58  H    0.164956
    59  H    0.201109
    60  H    0.182985
    61  H    0.404547
    62  H    0.229870
    63  H    0.208126
    64  H    0.222113
 Sum of Mulliken atomic charges =   0.00000
 Mulliken charges with hydrogens summed into heavy atoms:
              1
     1  C    0.184442
     2  N   -0.912535
     3  C    0.750628
     4  O   -0.670112
     5  C    0.078616
     6  C    0.067631
     7  C    0.058397
     8  C    0.011123
     9  C    0.022233
    10  C    0.014342
    11  C   -0.016426
    12  C   -0.019041
    13  C    0.038176
    14  C    0.030161
    15  C    0.090744
    16  C    0.047339
    17  N   -0.397842
    18  C    0.767466
    19  C   -0.000408
    20  O   -0.614526
    21  C    0.821085
    22  O   -0.639954
    23  N   -0.410187
    24  C    0.273660
    25  N   -0.403723
    26  C    0.746995
    27  C    0.079531
    28  O    0.002186
 Sum of Mulliken charges with hydrogens summed into heavy atoms =   0.00000
 Electronic spatial extent (au):  <R**2>=          20921.9614
 Charge=              0.0000 electrons
 Dipole moment (field-independent basis, Debye):
    X=             -8.8509    Y=             -4.1769    Z=              5.9947  Tot=             11.4770
 Quadrupole moment (field-independent basis, Debye-Ang):
   XX=           -130.4224   YY=           -159.8544   ZZ=           -179.0459
   XY=              8.3604   XZ=            -14.6406   YZ=              7.5552
 Traceless Quadrupole moment (field-independent basis, Debye-Ang):
   XX=             26.0185   YY=             -3.4135   ZZ=            -22.6050
   XY=              8.3604   XZ=            -14.6406   YZ=              7.5552
 Octapole moment (field-independent basis, Debye-Ang**2):
  XXX=           -843.3675  YYY=             35.6244  ZZZ=             31.0519  XYY=             70.4263
  XXY=           -158.9697  XXZ=            154.5631  XZZ=             -1.0321  YZZ=             -2.9503
  YYZ=             -5.4585  XYZ=            -11.8687
 Hexadecapole moment (field-independent basis, Debye-Ang**3):
 XXXX=         -20908.1523 YYYY=          -2362.0095 ZZZZ=          -1577.0204 XXXY=           -342.4235
 XXXZ=           -925.2041 YYYX=            112.1079 YYYZ=             -8.0790 ZZZX=           -155.1654
 ZZZY=             31.9285 XXYY=          -3956.2324 XXZZ=          -4168.2495 YYZZ=           -664.7031
 XXYZ=            161.1086 YYXZ=            -49.3418 ZZXY=             59.5055
 N-N= 2.725613663336D+03 E-N=-8.485049214046D+03  KE= 1.296120473095D+03
 1\1\GINC-MOSURA\SP\RHF\6-31G(d)\C20H36N4O4\MARIE\05-Dec-2019\0\\#SP HF
 /6-31G* Geom=(ModRedundant)\\paramfit run\\0,1\C,0,0.,0.,0.\N,0,1.4481
 87,0.,0.\C,0,2.1232,0.47592,1.072365\O,0,1.590179,0.696732,2.124447\C,
 0,3.650505,0.594143,0.921539\C,0,4.198902,1.549248,1.986845\C,0,4.3077
 51,-0.809116,1.023981\C,0,4.133566,-1.622781,2.319066\C,0,2.832729,-2.
 433298,2.484965\C,0,2.579342,-3.423586,1.372579\C,0,2.834093,-4.721989
 ,1.375535\C,0,3.442731,-5.535663,2.492337\C,0,2.42774,-6.370218,3.2941
 33\C,0,1.693892,-7.402618,2.427801\C,0,0.774274,-8.428536,3.139447\C,0
 ,0.118887,-9.296969,2.053288\N,0,1.59533,-9.267679,4.001559\C,0,1.0367
 79,-10.167772,4.862321\C,0,1.96438,-10.678762,5.940862\O,0,-0.103289,-
 10.530888,4.775526\C,0,-0.228361,-7.657085,4.027316\O,0,0.090004,-7.29
 6707,5.128542\N,0,-1.416619,-7.323616,3.478843\C,0,-2.421442,-6.64525,
 4.271531\N,0,3.997412,1.070275,-0.425452\C,0,3.157005,0.989709,-1.4963
 85\C,0,3.548477,1.841159,-2.686302\O,0,2.185316,0.288355,-1.504289\H,0
 ,-0.403259,1.006147,0.\H,0,-0.36496,-0.516002,0.875939\H,0,-0.345658,-
 0.522086,-0.883346\H,0,1.904244,0.070913,-0.879357\H,0,3.932135,1.2217
 6,2.980082\H,0,5.28092,1.595925,1.9075\H,0,3.792711,2.540594,1.848395\
 H,0,5.374584,-0.64325,0.891407\H,0,3.984642,-1.403324,0.174983\H,0,4.9
 61565,-2.324757,2.354635\H,0,4.250121,-0.975721,3.182259\H,0,1.985724,
 -1.764045,2.562723\H,0,2.895638,-2.94811,3.437249\H,0,2.135502,-3.0091
 81,0.481856\H,0,2.579482,-5.276386,0.485828\H,0,3.971519,-4.889909,3.1
 82881\H,0,4.191817,-6.202016,2.066382\H,0,2.965623,-6.85691,4.102952\H
 ,0,1.714584,-5.707921,3.766998\H,0,2.42081,-7.979938,1.860503\H,0,1.08
 3167,-6.875737,1.704087\H,0,0.891187,-9.872528,1.556434\H,0,-0.36551,-
 8.684705,1.299714\H,0,-0.597925,-9.98679,2.472891\H,0,2.435807,-8.8478
 4,4.327205\H,0,1.585188,-11.616367,6.31792\H,0,1.981002,-9.957975,6.75
 2844\H,0,2.97817,-10.810647,5.57862\H,0,-1.730263,-7.831365,2.685667\H
 ,0,-3.24021,-6.362494,3.623002\H,0,-1.998054,-5.755067,4.713054\H,0,-2
 .799425,-7.276973,5.068907\H,0,4.69639,1.778447,-0.463778\H,0,3.086873
 ,1.433905,-3.574017\H,0,4.623185,1.888058,-2.821777\H,0,3.180645,2.851
 334,-2.537823\\Version=EM64L-G09RevA.02\State=1-A\HF=-1295.1714871\RMS
 D=7.802e-09\Dipole=2.6938707,1.8349492,-3.1248528\Quadrupole=0.402103,
 1.4257187,-1.8278217,13.0121085,-0.4870871,-18.6519105\PG=C01 [X(C20H3
 6N4O4)]\\@


 JUST WHEN YOU THINK YOU'VE GOT THE WORLD ON A STRING,
 YOU FIND OUT IT'S YOUR LEASH.
 Job cpu time:  0 days  0 hours  5 minutes 46.6 seconds.
 File lengths (MBytes):  RWF=    132 Int=      0 D2E=      0 Chk=     10 Scr=      1
 Normal termination of Gaussian 09 at Thu Dec  5 16:22:14 2019.
