 Entering Gaussian System, Link 0=g09
 Input=PHI_-90.gau
 Output=PHI_-90.log
 Initial command:
 /home/marie/Utilities//g09/l1.exe /tmp/g09/Gau-5087.inp -scrdir=/tmp/g09/
 Entering Link 1 = /home/marie/Utilities//g09/l1.exe PID=      5089.
  
 Copyright (c) 1988,1990,1992,1993,1995,1998,2003,2009, Gaussian, Inc.
                  All Rights Reserved.
  
 This is part of the Gaussian(R) 09 program.  It is based on
 the Gaussian(R) 03 system (copyright 2003, Gaussian, Inc.),
 the Gaussian(R) 98 system (copyright 1998, Gaussian, Inc.),
 the Gaussian(R) 94 system (copyright 1995, Gaussian, Inc.),
 the Gaussian 92(TM) system (copyright 1992, Gaussian, Inc.),
 the Gaussian 90(TM) system (copyright 1990, Gaussian, Inc.),
 the Gaussian 88(TM) system (copyright 1988, Gaussian, Inc.),
 the Gaussian 86(TM) system (copyright 1986, Carnegie Mellon
 University), and the Gaussian 82(TM) system (copyright 1983,
 Carnegie Mellon University). Gaussian is a federally registered
 trademark of Gaussian, Inc.
  
 This software contains proprietary and confidential information,
 including trade secrets, belonging to Gaussian, Inc.
  
 This software is provided under written license and may be
 used, copied, transmitted, or stored only in accord with that
 written license.
  
 The following legend is applicable only to US Government
 contracts under FAR:
  
                    RESTRICTED RIGHTS LEGEND
  
 Use, reproduction and disclosure by the US Government is
 subject to restrictions as set forth in subparagraphs (a)
 and (c) of the Commercial Computer Software - Restricted
 Rights clause in FAR 52.227-19.
  
 Gaussian, Inc.
 340 Quinnipiac St., Bldg. 40, Wallingford CT 06492
  
  
 ---------------------------------------------------------------
 Warning -- This program may not be used in any manner that
 competes with the business of Gaussian, Inc. or will provide
 assistance to any competitor of Gaussian, Inc.  The licensee
 of this program is prohibited from giving any competitor of
 Gaussian, Inc. access to this program.  By using this program,
 the user acknowledges that Gaussian, Inc. is engaged in the
 business of creating and licensing software in the field of
 computational chemistry and represents and warrants to the
 licensee that it is not a competitor of Gaussian, Inc. and that
 it will not use this program in any manner prohibited above.
 ---------------------------------------------------------------
  

 Cite this work as:
 Gaussian 09, Revision A.02,
 M. J. Frisch, G. W. Trucks, H. B. Schlegel, G. E. Scuseria, 
 M. A. Robb, J. R. Cheeseman, G. Scalmani, V. Barone, B. Mennucci, 
 G. A. Petersson, H. Nakatsuji, M. Caricato, X. Li, H. P. Hratchian, 
 A. F. Izmaylov, J. Bloino, G. Zheng, J. L. Sonnenberg, M. Hada, 
 M. Ehara, K. Toyota, R. Fukuda, J. Hasegawa, M. Ishida, T. Nakajima, 
 Y. Honda, O. Kitao, H. Nakai, T. Vreven, J. A. Montgomery, Jr., 
 J. E. Peralta, F. Ogliaro, M. Bearpark, J. J. Heyd, E. Brothers, 
 K. N. Kudin, V. N. Staroverov, R. Kobayashi, J. Normand, 
 K. Raghavachari, A. Rendell, J. C. Burant, S. S. Iyengar, J. Tomasi, 
 M. Cossi, N. Rega, J. M. Millam, M. Klene, J. E. Knox, J. B. Cross, 
 V. Bakken, C. Adamo, J. Jaramillo, R. Gomperts, R. E. Stratmann, 
 O. Yazyev, A. J. Austin, R. Cammi, C. Pomelli, J. W. Ochterski, 
 R. L. Martin, K. Morokuma, V. G. Zakrzewski, G. A. Voth, 
 P. Salvador, J. J. Dannenberg, S. Dapprich, A. D. Daniels, 
 O. Farkas, J. B. Foresman, J. V. Ortiz, J. Cioslowski, 
 and D. J. Fox, Gaussian, Inc., Wallingford CT, 2009.
 
 ******************************************
 Gaussian 09:  EM64L-G09RevA.02 11-Jun-2009
                 5-Dec-2019 
 ******************************************
 %chk=PHI_-90
 %NoSave
 ---------------------------------
 #SP HF/6-31G* Geom=(ModRedundant)
 ---------------------------------
 1/18=120,38=1/1;
 2/12=2,17=6,18=5,40=1/2;
 3/5=1,6=6,7=1,11=9,16=1,25=1,30=1/1,2,3;
 4//1;
 5/5=2,38=5/2;
 6/7=2,8=2,9=2,10=2,28=1/1;
 99/5=1,9=1/99;
 ------------
 paramfit run
 ------------
 Symbolic Z-matrix:
 Charge =  0 Multiplicity = 1
 C-CT--0.3208          0.        0.        0. 
 N-N--0.5622           1.44819   0.        0. 
 C-C-0.8053            2.1232    0.47592   1.07237 
 O-O--0.6151           1.59018   0.69673   2.12445 
 C-CX-0.0839           3.65051   0.59414   0.92154 
 C-CU--0.3230          4.1989    1.54925   1.98685 
 C-CU--0.0657          4.30775  -0.80912   1.02398 
 C-CU--0.0109          4.13357  -1.62278   2.31907 
 C-CU-0.0816           2.83273  -2.4333    2.48497 
 C-CM--0.2354          2.57934  -3.42359   1.37258 
 C-CM--0.2653          2.83409  -4.72199   1.37554 
 C-CU-0.1214           3.44273  -5.53566   2.49234 
 C-CU--0.0354          2.42774  -6.37022   3.29413 
 C-CU--0.0984          1.69389  -7.40262   2.4278 
 C-CU-0.1300           0.77427  -8.42854   3.13945 
 C-CU--0.3561          0.11889  -9.29697   2.05329 
 N-N--0.7186           1.59533  -9.26768   4.00156 
 C-C-0.8537            1.03678  -10.16777   4.86232 
 C-CT--0.3868          1.96438  -10.67876   5.94086 
 O-O--0.6323          -0.10329  -10.53089   4.77553 
 C-C-0.7903           -0.22836  -7.65709   4.02732 
 O-O--0.6136           0.09     -7.29671   5.12854 
 N-N--0.5650          -1.41662  -7.32362   3.47884 
 C-CT--0.3231         -2.42144  -6.64525   4.27153 
 N-N--0.7191           3.99741   1.07028  -0.42545 
 C-C-0.8539            4.22276   0.24298  -1.48586 
 C-CT--0.3903          4.21213   0.91815  -2.84165 
 O-O--0.6290           4.42692  -0.93095  -1.35798 
 H-H1-0.1459          -0.40326   1.00615   0. 
 H-H1-0.1459          -0.36496  -0.516     0.87594 
 H-H1-0.1459          -0.34566  -0.52209  -0.88335 
 H-H-0.3572            1.90424   0.07091  -0.87936 
 H-HC-0.0997           3.93214   1.22176   2.98008 
 H-HC-0.0997           5.28092   1.59593   1.9075 
 H-HC-0.0997           3.79271   2.54059   1.8484 
 H-HC-0.0347           5.37458  -0.64325   0.89141 
 H-HC-0.0347           3.98464  -1.40332   0.17498 
 H-HC-0.0243           4.96157  -2.32476   2.35464 
 H-HC-0.0243           4.25012  -0.97572   3.18226 
 H-HC-0.0171           1.98572  -1.76405   2.56272 
 H-HC-0.0171           2.89564  -2.94811   3.43725 
 H-HA-0.1313           2.1355   -3.00918   0.48186 
 H-HA-0.1359           2.57948  -5.27639   0.48583 
 H-HC-0.0092           3.97152  -4.88991   3.18288 
 H-HC-0.0092           4.19182  -6.20202   2.06638 
 H-HC-0.0318           2.96562  -6.85691   4.10295 
 H-HC-0.0318           1.71458  -5.70792   3.767 
 H-HC-0.0435           2.42081  -7.97994   1.8605 
 H-HC-0.0435           1.08317  -6.87574   1.70409 
 H-HC-0.1066           0.89119  -9.87253   1.55643 
 H-HC-0.1066          -0.36551  -8.68471   1.29971 
 H-HC-0.1066          -0.59793  -9.98679   2.47289 
 H-H-0.3529            2.43581  -8.84784   4.32721 
 H-HC-0.1047           1.58519  -11.61637   6.31792 
 H-HC-0.1047           1.981    -9.95798   6.75284 
 H-HC-0.1047           2.97817  -10.81065   5.57862 
 H-H-0.3615           -1.73026  -7.83136   2.68567 
 H-H1-0.1469          -3.24021  -6.36249   3.623 
 H-H1-0.1469          -1.99805  -5.75507   4.71305 
 H-H1-0.1469          -2.79943  -7.27697   5.06891 
 H-H-0.3570            3.7051    1.99728  -0.64173 
 H-HC-0.1060           4.76393   0.3066   -3.54058 
 H-HC-0.1060           4.64155   1.91315  -2.80818 
 H-HC-0.1060           3.18762   1.00211  -3.18968 
 
 The following ModRedundant input section has been read:
 D    *    5   25    * F                                                       
 Stoichiometry    C20H36N4O4
 Framework group  C1[X(C20H36N4O4)]
 Deg. of freedom   186
 Full point group                 C1      NOp   1
 Largest Abelian subgroup         C1      NOp   1
 Largest concise Abelian subgroup C1      NOp   1
                         Standard orientation:                         
 ---------------------------------------------------------------------
 Center     Atomic      Atomic             Coordinates (Angstroms)
 Number     Number       Type             X           Y           Z
 ---------------------------------------------------------------------
      1          6    20001001       -3.883452    3.009171    0.916542
      2          7    20001014       -4.276835    1.651593    0.601140
      3          6    20001002       -4.453173    1.282381   -0.689091
      4          8    20001024       -4.085608    1.958371   -1.609786
      5          6    90000001       -5.031461   -0.124544   -0.924744
      6          6    90000002       -5.596549   -0.215580   -2.346091
      7          6    90000002       -3.938480   -1.199732   -0.677832
      8          6    90000002       -2.664733   -1.182228   -1.542066
      9          6    90000002       -1.534705   -0.217536   -1.130918
     10          6    20001004       -1.037527   -0.419399    0.281294
     11          6    20001004        0.033423   -1.091920    0.670573
     12          6    90000002        1.023958   -1.825634   -0.201354
     13          6    90000002        2.349152   -1.074978   -0.424833
     14          6    90000002        3.111186   -0.816543    0.881854
     15          6    90000002        4.542652   -0.228041    0.785871
     16          6    90000002        5.052518   -0.009770    2.219692
     17          7    20001014        5.397007   -1.194211    0.109022
     18          6    20001002        6.679047   -0.887598   -0.245122
     19          6    20001001        7.302275   -1.822873   -1.255891
     20          8    20001024        7.272906    0.051308    0.207568
     21          6    20001002        4.489748    1.056235   -0.072362
     22          8    20001024        4.523069    0.985547   -1.271454
     23          7    20001014        4.302882    2.228168    0.572334
     24          6    20001001        4.294550    3.474106   -0.166430
     25          7    20001014       -6.076584   -0.421843    0.065591
     26          6    20001002       -5.831850   -1.012939    1.269910
     27          6    20001001       -6.957933   -0.909404    2.277548
     28          8    20001024       -4.806897   -1.584258    1.513233
     29          1    20001035       -4.656520    3.723509    0.657626
     30          1    20001035       -2.984921    3.264169    0.374010
     31          1    20001035       -3.681256    3.072622    1.978354
     32          1    20001029       -4.811025    1.162092    1.280341
     33          1    20001034       -4.843625    0.021809   -3.082084
     34          1    20001034       -5.962821   -1.222028   -2.525379
     35          1    20001034       -6.410643    0.483068   -2.472846
     36          1    20001034       -4.426254   -2.157292   -0.846283
     37          1    20001034       -3.665546   -1.178180    0.372559
     38          1    20001034       -2.259784   -2.189595   -1.512958
     39          1    20001034       -2.922303   -0.991101   -2.578648
     40          1    20001034       -1.860924    0.807752   -1.248092
     41          1    20001034       -0.723222   -0.355800   -1.836759
     42          1    20001033       -1.633087    0.048399    1.048488
     43          1    20001033        0.236713   -1.125240    1.729499
     44          1    20001034        0.587211   -2.038206   -1.169616
     45          1    20001034        1.236395   -2.792087    0.254094
     46          1    20001034        2.950155   -1.663078   -1.112808
     47          1    20001034        2.149083   -0.138992   -0.929543
     48          1    20001034        3.195591   -1.746227    1.440511
     49          1    20001034        2.528404   -0.138433    1.494132
     50          1    20001034        5.150937   -0.974544    2.703534
     51          1    20001034        4.348702    0.575546    2.802298
     52          1    20001034        6.018457    0.472502    2.230385
     53          1    20001029        4.929322   -1.810039   -0.516069
     54          1    20001034        8.377022   -1.744065   -1.194488
     55          1    20001034        6.986904   -1.518411   -2.249355
     56          1    20001034        6.999185   -2.852611   -1.100462
     57          1    20001029        4.519499    2.275186    1.539896
     58          1    20001035        4.012194    4.272968    0.506635
     59          1    20001035        3.573439    3.417777   -0.968585
     60          1    20001035        5.267031    3.694977   -0.594508
     61          1    20001029       -6.895974    0.140957    0.007272
     62          1    20001034       -6.848045   -1.699187    3.006341
     63          1    20001034       -7.934162   -0.976114    1.810560
     64          1    20001034       -6.891068    0.045160    2.789543
 ---------------------------------------------------------------------
 Rotational constants (GHZ):      0.3582800      0.0537574      0.0520242
 Standard basis: 6-31G(d) (6D, 7F)
 There are   492 symmetry adapted basis functions of A   symmetry.
 Integral buffers will be    131072 words long.
 Raffenetti 1 integral format.
 Two-electron integral symmetry is turned on.
   492 basis functions,   928 primitive gaussians,   492 cartesian basis functions
   108 alpha electrons      108 beta electrons
       nuclear repulsion energy      2714.5002760026 Hartrees.
 NAtoms=   64 NActive=   64 NUniq=   64 SFac= 7.50D-01 NAtFMM=   80 NAOKFM=F Big=T
 One-electron integrals computed using PRISM.
 NBasis=   492 RedAO= T  NBF=   492
 NBsUse=   492 1.00D-06 NBFU=   492
 Harris functional with IExCor=  205 diagonalized for initial guess.
 ExpMin= 1.61D-01 ExpMax= 5.48D+03 ExpMxC= 8.25D+02 IAcc=1 IRadAn=         1 AccDes= 0.00D+00
 HarFok:  IExCor=  205 AccDes= 0.00D+00 IRadAn=         1 IDoV= 1
 ScaDFX=  1.000000  1.000000  1.000000  1.000000
 FoFCou: FMM=F IPFlag=           0 FMFlag=      100000 FMFlg1=           1
         NFxFlg=           0 DoJE=T BraDBF=F KetDBF=T FulRan=T
         Omega=  0.000000  0.000000  1.000000  0.000000  0.000000 ICntrl=     500 IOpCl=  0
         NMat0=    1 NMatS0=    1 NMatT0=    0 NMatD0=    1 NMtDS0=    0 NMtDT0=    0
         I1Cent=           4 NGrid=           0.
 Petite list used in FoFCou.
 Initial guess orbital symmetries:
       Occupied  (A) (A) (A) (A) (A) (A) (A) (A) (A) (A) (A) (A)
                 (A) (A) (A) (A) (A) (A) (A) (A) (A) (A) (A) (A)
                 (A) (A) (A) (A) (A) (A) (A) (A) (A) (A) (A) (A)
                 (A) (A) (A) (A) (A) (A) (A) (A) (A) (A) (A) (A)
                 (A) (A) (A) (A) (A) (A) (A) (A) (A) (A) (A) (A)
                 (A) (A) (A) (A) (A) (A) (A) (A) (A) (A) (A) (A)
                 (A) (A) (A) (A) (A) (A) (A) (A) (A) (A) (A) (A)
                 (A) (A) (A) (A) (A) (A) (A) (A) (A) (A) (A) (A)
                 (A) (A) (A) (A) (A) (A) (A) (A) (A) (A) (A) (A)
       Virtual   (A) (A) (A) (A) (A) (A) (A) (A) (A) (A) (A) (A)
                 (A) (A) (A) (A) (A) (A) (A) (A) (A) (A) (A) (A)
                 (A) (A) (A) (A) (A) (A) (A) (A) (A) (A) (A) (A)
                 (A) (A) (A) (A) (A) (A) (A) (A) (A) (A) (A) (A)
                 (A) (A) (A) (A) (A) (A) (A) (A) (A) (A) (A) (A)
                 (A) (A) (A) (A) (A) (A) (A) (A) (A) (A) (A) (A)
                 (A) (A) (A) (A) (A) (A) (A) (A) (A) (A) (A) (A)
                 (A) (A) (A) (A) (A) (A) (A) (A) (A) (A) (A) (A)
                 (A) (A) (A) (A) (A) (A) (A) (A) (A) (A) (A) (A)
                 (A) (A) (A) (A) (A) (A) (A) (A) (A) (A) (A) (A)
                 (A) (A) (A) (A) (A) (A) (A) (A) (A) (A) (A) (A)
                 (A) (A) (A) (A) (A) (A) (A) (A) (A) (A) (A) (A)
                 (A) (A) (A) (A) (A) (A) (A) (A) (A) (A) (A) (A)
                 (A) (A) (A) (A) (A) (A) (A) (A) (A) (A) (A) (A)
                 (A) (A) (A) (A) (A) (A) (A) (A) (A) (A) (A) (A)
                 (A) (A) (A) (A) (A) (A) (A) (A) (A) (A) (A) (A)
                 (A) (A) (A) (A) (A) (A) (A) (A) (A) (A) (A) (A)
                 (A) (A) (A) (A) (A) (A) (A) (A) (A) (A) (A) (A)
                 (A) (A) (A) (A) (A) (A) (A) (A) (A) (A) (A) (A)
                 (A) (A) (A) (A) (A) (A) (A) (A) (A) (A) (A) (A)
                 (A) (A) (A) (A) (A) (A) (A) (A) (A) (A) (A) (A)
                 (A) (A) (A) (A) (A) (A) (A) (A) (A) (A) (A) (A)
                 (A) (A) (A) (A) (A) (A) (A) (A) (A) (A) (A) (A)
                 (A) (A) (A) (A) (A) (A) (A) (A) (A) (A) (A) (A)
                 (A) (A) (A) (A) (A) (A) (A) (A) (A) (A) (A) (A)
                 (A) (A) (A) (A) (A) (A) (A) (A) (A) (A) (A) (A)
                 (A) (A) (A) (A) (A) (A) (A) (A) (A) (A) (A) (A)
                 (A) (A) (A) (A) (A) (A) (A) (A) (A) (A) (A) (A)
                 (A) (A) (A) (A) (A) (A) (A) (A) (A) (A) (A) (A)
                 (A) (A) (A) (A) (A) (A) (A) (A) (A) (A) (A) (A)
                 (A) (A) (A) (A) (A) (A) (A) (A) (A) (A) (A) (A)
                 (A) (A) (A) (A) (A) (A) (A) (A) (A) (A) (A) (A)
 The electronic state of the initial guess is 1-A.
 Requested convergence on RMS density matrix=1.00D-08 within 128 cycles.
 Requested convergence on MAX density matrix=1.00D-06.
 Requested convergence on             energy=1.00D-06.
 No special actions if energy rises.
 Integral accuracy reduced to 1.0D-05 until final iterations.
 Initial convergence to 1.0D-05 achieved.  Increase integral accuracy.
 SCF Done:  E(RHF) =  -1295.58130327     A.U. after   14 cycles
             Convg  =    0.5867D-08             -V/T =  2.0010

 **********************************************************************

            Population analysis using the SCF density.

 **********************************************************************

 Orbital symmetries:
       Occupied  (A) (A) (A) (A) (A) (A) (A) (A) (A) (A) (A) (A)
                 (A) (A) (A) (A) (A) (A) (A) (A) (A) (A) (A) (A)
                 (A) (A) (A) (A) (A) (A) (A) (A) (A) (A) (A) (A)
                 (A) (A) (A) (A) (A) (A) (A) (A) (A) (A) (A) (A)
                 (A) (A) (A) (A) (A) (A) (A) (A) (A) (A) (A) (A)
                 (A) (A) (A) (A) (A) (A) (A) (A) (A) (A) (A) (A)
                 (A) (A) (A) (A) (A) (A) (A) (A) (A) (A) (A) (A)
                 (A) (A) (A) (A) (A) (A) (A) (A) (A) (A) (A) (A)
                 (A) (A) (A) (A) (A) (A) (A) (A) (A) (A) (A) (A)
       Virtual   (A) (A) (A) (A) (A) (A) (A) (A) (A) (A) (A) (A)
                 (A) (A) (A) (A) (A) (A) (A) (A) (A) (A) (A) (A)
                 (A) (A) (A) (A) (A) (A) (A) (A) (A) (A) (A) (A)
                 (A) (A) (A) (A) (A) (A) (A) (A) (A) (A) (A) (A)
                 (A) (A) (A) (A) (A) (A) (A) (A) (A) (A) (A) (A)
                 (A) (A) (A) (A) (A) (A) (A) (A) (A) (A) (A) (A)
                 (A) (A) (A) (A) (A) (A) (A) (A) (A) (A) (A) (A)
                 (A) (A) (A) (A) (A) (A) (A) (A) (A) (A) (A) (A)
                 (A) (A) (A) (A) (A) (A) (A) (A) (A) (A) (A) (A)
                 (A) (A) (A) (A) (A) (A) (A) (A) (A) (A) (A) (A)
                 (A) (A) (A) (A) (A) (A) (A) (A) (A) (A) (A) (A)
                 (A) (A) (A) (A) (A) (A) (A) (A) (A) (A) (A) (A)
                 (A) (A) (A) (A) (A) (A) (A) (A) (A) (A) (A) (A)
                 (A) (A) (A) (A) (A) (A) (A) (A) (A) (A) (A) (A)
                 (A) (A) (A) (A) (A) (A) (A) (A) (A) (A) (A) (A)
                 (A) (A) (A) (A) (A) (A) (A) (A) (A) (A) (A) (A)
                 (A) (A) (A) (A) (A) (A) (A) (A) (A) (A) (A) (A)
                 (A) (A) (A) (A) (A) (A) (A) (A) (A) (A) (A) (A)
                 (A) (A) (A) (A) (A) (A) (A) (A) (A) (A) (A) (A)
                 (A) (A) (A) (A) (A) (A) (A) (A) (A) (A) (A) (A)
                 (A) (A) (A) (A) (A) (A) (A) (A) (A) (A) (A) (A)
                 (A) (A) (A) (A) (A) (A) (A) (A) (A) (A) (A) (A)
                 (A) (A) (A) (A) (A) (A) (A) (A) (A) (A) (A) (A)
                 (A) (A) (A) (A) (A) (A) (A) (A) (A) (A) (A) (A)
                 (A) (A) (A) (A) (A) (A) (A) (A) (A) (A) (A) (A)
                 (A) (A) (A) (A) (A) (A) (A) (A) (A) (A) (A) (A)
                 (A) (A) (A) (A) (A) (A) (A) (A) (A) (A) (A) (A)
                 (A) (A) (A) (A) (A) (A) (A) (A) (A) (A) (A) (A)
                 (A) (A) (A) (A) (A) (A) (A) (A) (A) (A) (A) (A)
                 (A) (A) (A) (A) (A) (A) (A) (A) (A) (A) (A) (A)
                 (A) (A) (A) (A) (A) (A) (A) (A) (A) (A) (A) (A)
                 (A) (A) (A) (A) (A) (A) (A) (A) (A) (A) (A) (A)
 The electronic state is 1-A.
 Alpha  occ. eigenvalues --  -20.53555 -20.52950 -20.51715 -20.51236 -15.60154
 Alpha  occ. eigenvalues --  -15.58974 -15.57588 -15.57134 -11.36896 -11.34474
 Alpha  occ. eigenvalues --  -11.33919 -11.33320 -11.28817 -11.28133 -11.26206
 Alpha  occ. eigenvalues --  -11.25062 -11.24755 -11.22821 -11.22211 -11.21697
 Alpha  occ. eigenvalues --  -11.21673 -11.21603 -11.21424 -11.21056 -11.20876
 Alpha  occ. eigenvalues --  -11.20551 -11.20360 -11.19698  -1.41823  -1.39862
 Alpha  occ. eigenvalues --   -1.39021  -1.37748  -1.26075  -1.23226  -1.23158
 Alpha  occ. eigenvalues --   -1.22299  -1.09755  -1.08644  -1.06710  -1.03567
 Alpha  occ. eigenvalues --   -1.00930  -0.99227  -0.98382  -0.96647  -0.94612
 Alpha  occ. eigenvalues --   -0.93847  -0.91178  -0.86838  -0.85340  -0.82335
 Alpha  occ. eigenvalues --   -0.80606  -0.79801  -0.79100  -0.77706  -0.76531
 Alpha  occ. eigenvalues --   -0.73098  -0.71242  -0.70625  -0.69746  -0.67545
 Alpha  occ. eigenvalues --   -0.66133  -0.65872  -0.64354  -0.63654  -0.63384
 Alpha  occ. eigenvalues --   -0.63035  -0.62397  -0.61424  -0.61224  -0.60994
 Alpha  occ. eigenvalues --   -0.60738  -0.60549  -0.59219  -0.58762  -0.58272
 Alpha  occ. eigenvalues --   -0.57551  -0.56835  -0.56024  -0.55822  -0.55795
 Alpha  occ. eigenvalues --   -0.55440  -0.55111  -0.54554  -0.54350  -0.53504
 Alpha  occ. eigenvalues --   -0.53242  -0.53044  -0.52627  -0.52304  -0.51754
 Alpha  occ. eigenvalues --   -0.50997  -0.49861  -0.49421  -0.48543  -0.47814
 Alpha  occ. eigenvalues --   -0.46894  -0.45834  -0.45642  -0.44598  -0.43887
 Alpha  occ. eigenvalues --   -0.41129  -0.40724  -0.39647  -0.38936  -0.38490
 Alpha  occ. eigenvalues --   -0.38145  -0.37937  -0.33299
 Alpha virt. eigenvalues --    0.16861   0.18354   0.18580   0.19998   0.20034
 Alpha virt. eigenvalues --    0.21966   0.22404   0.23186   0.23708   0.24164
 Alpha virt. eigenvalues --    0.25725   0.26129   0.26608   0.27377   0.27926
 Alpha virt. eigenvalues --    0.28299   0.28443   0.29242   0.29319   0.29386
 Alpha virt. eigenvalues --    0.30027   0.30943   0.31310   0.31486   0.31583
 Alpha virt. eigenvalues --    0.31949   0.32447   0.32912   0.33878   0.34062
 Alpha virt. eigenvalues --    0.34538   0.34850   0.35365   0.35846   0.35922
 Alpha virt. eigenvalues --    0.36116   0.36786   0.37560   0.38045   0.38222
 Alpha virt. eigenvalues --    0.38836   0.39670   0.39769   0.40322   0.40730
 Alpha virt. eigenvalues --    0.41637   0.42475   0.42937   0.43297   0.44197
 Alpha virt. eigenvalues --    0.45150   0.45661   0.46303   0.46482   0.47300
 Alpha virt. eigenvalues --    0.47976   0.49218   0.49578   0.52599   0.53078
 Alpha virt. eigenvalues --    0.54778   0.56093   0.58149   0.58573   0.60152
 Alpha virt. eigenvalues --    0.62084   0.62891   0.64734   0.69096   0.70654
 Alpha virt. eigenvalues --    0.71347   0.71879   0.72568   0.73014   0.73464
 Alpha virt. eigenvalues --    0.74077   0.75383   0.76208   0.76304   0.76733
 Alpha virt. eigenvalues --    0.77151   0.77677   0.78476   0.78944   0.79359
 Alpha virt. eigenvalues --    0.79559   0.80316   0.80909   0.81415   0.82303
 Alpha virt. eigenvalues --    0.84275   0.84796   0.85154   0.85968   0.87381
 Alpha virt. eigenvalues --    0.87940   0.88374   0.88863   0.90129   0.90409
 Alpha virt. eigenvalues --    0.91813   0.91868   0.92887   0.93046   0.93583
 Alpha virt. eigenvalues --    0.94578   0.95561   0.96531   0.97289   0.97835
 Alpha virt. eigenvalues --    0.99096   0.99549   1.00257   1.00659   1.01159
 Alpha virt. eigenvalues --    1.01572   1.01894   1.02841   1.03295   1.04529
 Alpha virt. eigenvalues --    1.04935   1.05249   1.06652   1.07114   1.07843
 Alpha virt. eigenvalues --    1.08063   1.08632   1.09410   1.10384   1.10808
 Alpha virt. eigenvalues --    1.12537   1.13217   1.13631   1.14150   1.14648
 Alpha virt. eigenvalues --    1.14833   1.15313   1.15543   1.15830   1.16246
 Alpha virt. eigenvalues --    1.16690   1.17108   1.17314   1.17693   1.18133
 Alpha virt. eigenvalues --    1.18547   1.18753   1.19150   1.19455   1.19970
 Alpha virt. eigenvalues --    1.20215   1.20377   1.20596   1.21552   1.21761
 Alpha virt. eigenvalues --    1.22312   1.22430   1.22480   1.22929   1.23363
 Alpha virt. eigenvalues --    1.23907   1.24210   1.24840   1.25758   1.26287
 Alpha virt. eigenvalues --    1.26944   1.27832   1.28550   1.29431   1.29574
 Alpha virt. eigenvalues --    1.30092   1.31485   1.31689   1.31888   1.33204
 Alpha virt. eigenvalues --    1.34588   1.35341   1.36329   1.37322   1.38286
 Alpha virt. eigenvalues --    1.38839   1.39485   1.41557   1.42783   1.44524
 Alpha virt. eigenvalues --    1.45893   1.47953   1.48346   1.48450   1.49389
 Alpha virt. eigenvalues --    1.51177   1.52478   1.54136   1.54763   1.55674
 Alpha virt. eigenvalues --    1.58434   1.59048   1.59616   1.60935   1.62065
 Alpha virt. eigenvalues --    1.64176   1.65276   1.66061   1.69380   1.69748
 Alpha virt. eigenvalues --    1.71170   1.71468   1.72412   1.73046   1.73639
 Alpha virt. eigenvalues --    1.74983   1.76533   1.78073   1.78991   1.80775
 Alpha virt. eigenvalues --    1.82139   1.83593   1.84346   1.87191   1.88723
 Alpha virt. eigenvalues --    1.89983   1.90839   1.92042   1.93275   1.95352
 Alpha virt. eigenvalues --    1.96541   1.97913   1.98954   2.00237   2.01297
 Alpha virt. eigenvalues --    2.02761   2.05148   2.06955   2.07916   2.08535
 Alpha virt. eigenvalues --    2.09557   2.10702   2.12318   2.12649   2.13178
 Alpha virt. eigenvalues --    2.13566   2.14493   2.15096   2.15857   2.16710
 Alpha virt. eigenvalues --    2.17421   2.17741   2.18960   2.19448   2.20395
 Alpha virt. eigenvalues --    2.21747   2.22006   2.23214   2.23421   2.24990
 Alpha virt. eigenvalues --    2.25728   2.26015   2.26346   2.27389   2.27984
 Alpha virt. eigenvalues --    2.29228   2.29685   2.30673   2.32349   2.33256
 Alpha virt. eigenvalues --    2.33967   2.34504   2.35609   2.36452   2.37138
 Alpha virt. eigenvalues --    2.37475   2.37693   2.38748   2.39129   2.39778
 Alpha virt. eigenvalues --    2.41242   2.42174   2.42500   2.43319   2.44900
 Alpha virt. eigenvalues --    2.46640   2.46941   2.47654   2.48429   2.49975
 Alpha virt. eigenvalues --    2.51475   2.53222   2.53677   2.55530   2.56271
 Alpha virt. eigenvalues --    2.56827   2.57091   2.57781   2.59933   2.61866
 Alpha virt. eigenvalues --    2.62385   2.63191   2.63574   2.64443   2.65489
 Alpha virt. eigenvalues --    2.66833   2.69082   2.69999   2.70747   2.71106
 Alpha virt. eigenvalues --    2.73187   2.74577   2.75072   2.75807   2.76020
 Alpha virt. eigenvalues --    2.77173   2.78099   2.78318   2.79129   2.80097
 Alpha virt. eigenvalues --    2.80824   2.82876   2.83236   2.85689   2.86746
 Alpha virt. eigenvalues --    2.88625   2.89755   2.91564   2.92606   2.93493
 Alpha virt. eigenvalues --    2.96219   2.98466   2.99796   3.00371   3.03295
 Alpha virt. eigenvalues --    3.03854   3.05155   3.05976   3.08108   3.09637
 Alpha virt. eigenvalues --    3.09898   3.11508   3.11583   3.13566   3.16267
 Alpha virt. eigenvalues --    3.18708   3.19004   3.23117   3.27047   3.30979
 Alpha virt. eigenvalues --    3.34760   3.35300   3.39746   3.40900   3.42334
 Alpha virt. eigenvalues --    3.43033   3.43068   3.54003   3.56073   3.57948
 Alpha virt. eigenvalues --    3.58561   4.38374   4.38777   4.46658   4.49558
 Alpha virt. eigenvalues --    4.52242   4.53839   4.55915   4.57790   4.62201
 Alpha virt. eigenvalues --    4.64389   4.66634   4.67427   4.68157   4.70390
 Alpha virt. eigenvalues --    4.71397   4.76455   4.79053   4.84276   4.85655
 Alpha virt. eigenvalues --    4.89708   4.90392   4.94205   4.95517   5.00342
 Alpha virt. eigenvalues --    5.02412   5.11654   5.21010   5.24010
          Condensed to atoms (all electrons):
 Mulliken atomic charges:
              1
     1  C   -0.281701
     2  N   -0.785596
     3  C    0.788725
     4  O   -0.617713
     5  C    0.063602
     6  C   -0.458083
     7  C   -0.347362
     8  C   -0.307378
     9  C   -0.371221
    10  C   -0.168122
    11  C   -0.180231
    12  C   -0.352278
    13  C   -0.310407
    14  C   -0.328350
    15  C    0.090680
    16  C   -0.509482
    17  N   -0.787500
    18  C    0.767328
    19  C   -0.595584
    20  O   -0.614864
    21  C    0.820896
    22  O   -0.639556
    23  N   -0.805879
    24  C   -0.274937
    25  N   -0.810291
    26  C    0.722509
    27  C   -0.583542
    28  O   -0.595512
    29  H    0.170558
    30  H    0.209747
    31  H    0.171405
    32  H    0.390928
    33  H    0.210925
    34  H    0.171140
    35  H    0.156055
    36  H    0.168315
    37  H    0.285402
    38  H    0.162113
    39  H    0.155073
    40  H    0.197563
    41  H    0.169119
    42  H    0.178956
    43  H    0.167687
    44  H    0.177707
    45  H    0.159775
    46  H    0.148770
    47  H    0.197517
    48  H    0.173570
    49  H    0.184935
    50  H    0.183737
    51  H    0.148091
    52  H    0.225212
    53  H    0.390384
    54  H    0.210184
    55  H    0.209183
    56  H    0.176651
    57  H    0.394969
    58  H    0.163436
    59  H    0.199464
    60  H    0.184265
    61  H    0.377522
    62  H    0.223716
    63  H    0.189215
    64  H    0.188565
 Sum of Mulliken atomic charges =   0.00000
 Mulliken charges with hydrogens summed into heavy atoms:
              1
     1  C    0.270008
     2  N   -0.394668
     3  C    0.788725
     4  O   -0.617713
     5  C    0.063602
     6  C    0.080036
     7  C    0.106355
     8  C    0.009808
     9  C   -0.004539
    10  C    0.010835
    11  C   -0.012544
    12  C   -0.014796
    13  C    0.035880
    14  C    0.030154
    15  C    0.090680
    16  C    0.047558
    17  N   -0.397115
    18  C    0.767328
    19  C    0.000434
    20  O   -0.614864
    21  C    0.820896
    22  O   -0.639556
    23  N   -0.410910
    24  C    0.272228
    25  N   -0.432769
    26  C    0.722509
    27  C    0.017954
    28  O   -0.595512
 Sum of Mulliken charges with hydrogens summed into heavy atoms =   0.00000
 Electronic spatial extent (au):  <R**2>=          20560.5284
 Charge=              0.0000 electrons
 Dipole moment (field-independent basis, Debye):
    X=             -6.8232    Y=             -0.1676    Z=              4.0853  Tot=              7.9545
 Quadrupole moment (field-independent basis, Debye-Ang):
   XX=           -154.8505   YY=           -165.1954   ZZ=           -172.1887
   XY=            -14.6698   XZ=             -9.4209   YZ=             17.2467
 Traceless Quadrupole moment (field-independent basis, Debye-Ang):
   XX=              9.2277   YY=             -1.1173   ZZ=             -8.1105
   XY=            -14.6698   XZ=             -9.4209   YZ=             17.2467
 Octapole moment (field-independent basis, Debye-Ang**2):
  XXX=           -619.5028  YYY=             44.9798  ZZZ=             22.1648  XYY=             75.6280
  XXY=            -47.2225  XXZ=             78.8898  XZZ=              4.2402  YZZ=             -1.5866
  YYZ=             15.3018  XYZ=             -4.4029
 Hexadecapole moment (field-independent basis, Debye-Ang**3):
 XXXX=         -22167.7067 YYYY=          -2379.1850 ZZZZ=          -1700.4338 XXXY=           -683.6474
 XXXZ=           -813.3870 YYYX=             81.4739 YYYZ=             54.3607 ZZZX=            -72.3413
 ZZZY=             29.1699 XXYY=          -4005.3831 XXZZ=          -3965.3983 YYZZ=           -713.3609
 XXYZ=            309.9180 YYXZ=            -65.7121 ZZXY=             26.2112
 N-N= 2.714500276003D+03 E-N=-8.461702501490D+03  KE= 1.294256296339D+03
 1\1\GINC-MOSURA\SP\RHF\6-31G(d)\C20H36N4O4\MARIE\05-Dec-2019\0\\#SP HF
 /6-31G* Geom=(ModRedundant)\\paramfit run\\0,1\C,0,0.,0.,0.\N,0,1.4481
 87,0.,0.\C,0,2.1232,0.47592,1.072365\O,0,1.590179,0.696732,2.124447\C,
 0,3.650505,0.594143,0.921539\C,0,4.198902,1.549248,1.986845\C,0,4.3077
 51,-0.809116,1.023981\C,0,4.133566,-1.622781,2.319066\C,0,2.832729,-2.
 433298,2.484965\C,0,2.579342,-3.423586,1.372579\C,0,2.834093,-4.721989
 ,1.375535\C,0,3.442731,-5.535663,2.492337\C,0,2.42774,-6.370218,3.2941
 33\C,0,1.693892,-7.402618,2.427801\C,0,0.774274,-8.428536,3.139447\C,0
 ,0.118887,-9.296969,2.053288\N,0,1.59533,-9.267679,4.001559\C,0,1.0367
 79,-10.167772,4.862321\C,0,1.96438,-10.678762,5.940862\O,0,-0.103289,-
 10.530888,4.775526\C,0,-0.228361,-7.657085,4.027316\O,0,0.090004,-7.29
 6707,5.128542\N,0,-1.416619,-7.323616,3.478843\C,0,-2.421442,-6.64525,
 4.271531\N,0,3.997412,1.070275,-0.425452\C,0,4.222755,0.242977,-1.4858
 63\C,0,4.212131,0.918147,-2.841647\O,0,4.426919,-0.930949,-1.357979\H,
 0,-0.403259,1.006147,0.\H,0,-0.36496,-0.516002,0.875939\H,0,-0.345658,
 -0.522086,-0.883346\H,0,1.904244,0.070913,-0.879357\H,0,3.932135,1.221
 76,2.980082\H,0,5.28092,1.595925,1.9075\H,0,3.792711,2.540594,1.848395
 \H,0,5.374584,-0.64325,0.891407\H,0,3.984642,-1.403324,0.174983\H,0,4.
 961565,-2.324757,2.354635\H,0,4.250121,-0.975721,3.182259\H,0,1.985724
 ,-1.764045,2.562723\H,0,2.895638,-2.94811,3.437249\H,0,2.135502,-3.009
 181,0.481856\H,0,2.579482,-5.276386,0.485828\H,0,3.971519,-4.889909,3.
 182881\H,0,4.191817,-6.202016,2.066382\H,0,2.965623,-6.85691,4.102952\
 H,0,1.714584,-5.707921,3.766998\H,0,2.42081,-7.979938,1.860503\H,0,1.0
 83167,-6.875737,1.704087\H,0,0.891187,-9.872528,1.556434\H,0,-0.36551,
 -8.684705,1.299714\H,0,-0.597925,-9.98679,2.472891\H,0,2.435807,-8.847
 84,4.327205\H,0,1.585188,-11.616367,6.31792\H,0,1.981002,-9.957975,6.7
 52844\H,0,2.97817,-10.810647,5.57862\H,0,-1.730263,-7.831365,2.685667\
 H,0,-3.24021,-6.362494,3.623002\H,0,-1.998054,-5.755067,4.713054\H,0,-
 2.799425,-7.276973,5.068907\H,0,3.705104,1.997275,-0.641725\H,0,4.7639
 25,0.306603,-3.540582\H,0,4.641554,1.913147,-2.808177\H,0,3.187621,1.0
 02113,-3.189685\\Version=EM64L-G09RevA.02\State=1-A\HF=-1295.5813033\R
 MSD=5.867e-09\Dipole=0.4409443,1.7789074,-2.5367606\Quadrupole=-1.6572
 73,3.677253,-2.0199799,-5.3209301,12.0454163,-13.8170133\PG=C01 [X(C20
 H36N4O4)]\\@


 A SCIENTIST IS SOMEONE WHOSE CURIOSITY SURVIVES
 EDUCATION'S ASSAULTS ON IT.
                          - SIR HERMANN BONDI
 Job cpu time:  0 days  0 hours  5 minutes 18.3 seconds.
 File lengths (MBytes):  RWF=    132 Int=      0 D2E=      0 Chk=     10 Scr=      1
 Normal termination of Gaussian 09 at Thu Dec  5 16:47:54 2019.
