 Entering Gaussian System, Link 0=g09
 Input=PHI_60.gau
 Output=PHI_60.log
 Initial command:
 /home/marie/Utilities//g09/l1.exe /tmp/g09/Gau-2143.inp -scrdir=/tmp/g09/
 Entering Link 1 = /home/marie/Utilities//g09/l1.exe PID=      2163.
  
 Copyright (c) 1988,1990,1992,1993,1995,1998,2003,2009, Gaussian, Inc.
                  All Rights Reserved.
  
 This is part of the Gaussian(R) 09 program.  It is based on
 the Gaussian(R) 03 system (copyright 2003, Gaussian, Inc.),
 the Gaussian(R) 98 system (copyright 1998, Gaussian, Inc.),
 the Gaussian(R) 94 system (copyright 1995, Gaussian, Inc.),
 the Gaussian 92(TM) system (copyright 1992, Gaussian, Inc.),
 the Gaussian 90(TM) system (copyright 1990, Gaussian, Inc.),
 the Gaussian 88(TM) system (copyright 1988, Gaussian, Inc.),
 the Gaussian 86(TM) system (copyright 1986, Carnegie Mellon
 University), and the Gaussian 82(TM) system (copyright 1983,
 Carnegie Mellon University). Gaussian is a federally registered
 trademark of Gaussian, Inc.
  
 This software contains proprietary and confidential information,
 including trade secrets, belonging to Gaussian, Inc.
  
 This software is provided under written license and may be
 used, copied, transmitted, or stored only in accord with that
 written license.
  
 The following legend is applicable only to US Government
 contracts under FAR:
  
                    RESTRICTED RIGHTS LEGEND
  
 Use, reproduction and disclosure by the US Government is
 subject to restrictions as set forth in subparagraphs (a)
 and (c) of the Commercial Computer Software - Restricted
 Rights clause in FAR 52.227-19.
  
 Gaussian, Inc.
 340 Quinnipiac St., Bldg. 40, Wallingford CT 06492
  
  
 ---------------------------------------------------------------
 Warning -- This program may not be used in any manner that
 competes with the business of Gaussian, Inc. or will provide
 assistance to any competitor of Gaussian, Inc.  The licensee
 of this program is prohibited from giving any competitor of
 Gaussian, Inc. access to this program.  By using this program,
 the user acknowledges that Gaussian, Inc. is engaged in the
 business of creating and licensing software in the field of
 computational chemistry and represents and warrants to the
 licensee that it is not a competitor of Gaussian, Inc. and that
 it will not use this program in any manner prohibited above.
 ---------------------------------------------------------------
  

 Cite this work as:
 Gaussian 09, Revision A.02,
 M. J. Frisch, G. W. Trucks, H. B. Schlegel, G. E. Scuseria, 
 M. A. Robb, J. R. Cheeseman, G. Scalmani, V. Barone, B. Mennucci, 
 G. A. Petersson, H. Nakatsuji, M. Caricato, X. Li, H. P. Hratchian, 
 A. F. Izmaylov, J. Bloino, G. Zheng, J. L. Sonnenberg, M. Hada, 
 M. Ehara, K. Toyota, R. Fukuda, J. Hasegawa, M. Ishida, T. Nakajima, 
 Y. Honda, O. Kitao, H. Nakai, T. Vreven, J. A. Montgomery, Jr., 
 J. E. Peralta, F. Ogliaro, M. Bearpark, J. J. Heyd, E. Brothers, 
 K. N. Kudin, V. N. Staroverov, R. Kobayashi, J. Normand, 
 K. Raghavachari, A. Rendell, J. C. Burant, S. S. Iyengar, J. Tomasi, 
 M. Cossi, N. Rega, J. M. Millam, M. Klene, J. E. Knox, J. B. Cross, 
 V. Bakken, C. Adamo, J. Jaramillo, R. Gomperts, R. E. Stratmann, 
 O. Yazyev, A. J. Austin, R. Cammi, C. Pomelli, J. W. Ochterski, 
 R. L. Martin, K. Morokuma, V. G. Zakrzewski, G. A. Voth, 
 P. Salvador, J. J. Dannenberg, S. Dapprich, A. D. Daniels, 
 O. Farkas, J. B. Foresman, J. V. Ortiz, J. Cioslowski, 
 and D. J. Fox, Gaussian, Inc., Wallingford CT, 2009.
 
 ******************************************
 Gaussian 09:  EM64L-G09RevA.02 11-Jun-2009
                 5-Dec-2019 
 ******************************************
 %chk=PHI_60
 %NoSave
 ---------------------------------
 #SP HF/6-31G* Geom=(ModRedundant)
 ---------------------------------
 1/18=120,38=1/1;
 2/12=2,17=6,18=5,40=1/2;
 3/5=1,6=6,7=1,11=9,16=1,25=1,30=1/1,2,3;
 4//1;
 5/5=2,38=5/2;
 6/7=2,8=2,9=2,10=2,28=1/1;
 99/5=1,9=1/99;
 ------------
 paramfit run
 ------------
 Symbolic Z-matrix:
 Charge =  0 Multiplicity = 1
 C-CT--0.3208          0.        0.        0. 
 N-N--0.5622           1.44819   0.        0. 
 C-C-0.8053            2.1232    0.47592   1.07237 
 O-O--0.6151           1.59018   0.69673   2.12445 
 C-CX-0.0839           3.65051   0.59414   0.92154 
 C-CU--0.3230          4.1989    1.54925   1.98685 
 C-CU--0.0657          4.30775  -0.80912   1.02398 
 C-CU--0.0109          4.13357  -1.62278   2.31907 
 C-CU-0.0816           2.83273  -2.4333    2.48497 
 C-CM--0.2354          2.57934  -3.42359   1.37258 
 C-CM--0.2653          2.83409  -4.72199   1.37554 
 C-CU-0.1214           3.44273  -5.53566   2.49234 
 C-CU--0.0354          2.42774  -6.37022   3.29413 
 C-CU--0.0984          1.69389  -7.40262   2.4278 
 C-CU-0.1300           0.77427  -8.42854   3.13945 
 C-CU--0.3561          0.11889  -9.29697   2.05329 
 N-N--0.7186           1.59533  -9.26768   4.00156 
 C-C-0.8537            1.03678  -10.16777   4.86232 
 C-CT--0.3868          1.96438  -10.67876   5.94086 
 O-O--0.6323          -0.10329  -10.53089   4.77553 
 C-C-0.7903           -0.22836  -7.65709   4.02732 
 O-O--0.6136           0.09     -7.29671   5.12854 
 N-N--0.5650          -1.41662  -7.32362   3.47884 
 C-CT--0.3231         -2.42144  -6.64525   4.27153 
 N-N--0.7191           3.99741   1.07028  -0.42545 
 C-C-0.8539            3.58479   2.26597  -0.93508 
 C-CT--0.3903          4.32587   2.7274   -2.17283 
 O-O--0.6290           2.69313   2.90255  -0.44944 
 H-H1-0.1459          -0.40326   1.00615   0. 
 H-H1-0.1459          -0.36496  -0.516     0.87594 
 H-H1-0.1459          -0.34566  -0.52209  -0.88335 
 H-H-0.3572            1.90424   0.07091  -0.87936 
 H-HC-0.0997           3.93214   1.22176   2.98008 
 H-HC-0.0997           5.28092   1.59593   1.9075 
 H-HC-0.0997           3.79271   2.54059   1.8484 
 H-HC-0.0347           5.37458  -0.64325   0.89141 
 H-HC-0.0347           3.98464  -1.40332   0.17498 
 H-HC-0.0243           4.96157  -2.32476   2.35464 
 H-HC-0.0243           4.25012  -0.97572   3.18226 
 H-HC-0.0171           1.98572  -1.76405   2.56272 
 H-HC-0.0171           2.89564  -2.94811   3.43725 
 H-HA-0.1313           2.1355   -3.00918   0.48186 
 H-HA-0.1359           2.57948  -5.27639   0.48583 
 H-HC-0.0092           3.97152  -4.88991   3.18288 
 H-HC-0.0092           4.19182  -6.20202   2.06638 
 H-HC-0.0318           2.96562  -6.85691   4.10295 
 H-HC-0.0318           1.71458  -5.70792   3.767 
 H-HC-0.0435           2.42081  -7.97994   1.8605 
 H-HC-0.0435           1.08317  -6.87574   1.70409 
 H-HC-0.1066           0.89119  -9.87253   1.55643 
 H-HC-0.1066          -0.36551  -8.68471   1.29971 
 H-HC-0.1066          -0.59793  -9.98679   2.47289 
 H-H-0.3529            2.43581  -8.84784   4.32721 
 H-HC-0.1047           1.58519  -11.61637   6.31792 
 H-HC-0.1047           1.981    -9.95798   6.75284 
 H-HC-0.1047           2.97817  -10.81065   5.57862 
 H-H-0.3615           -1.73026  -7.83136   2.68567 
 H-H1-0.1469          -3.24021  -6.36249   3.623 
 H-H1-0.1469          -1.99805  -5.75507   4.71305 
 H-H1-0.1469          -2.79943  -7.27697   5.06891 
 H-H-0.3570            4.82927   0.68639  -0.81558 
 H-HC-0.1060           3.70676   3.43268  -2.70785 
 H-HC-0.1060           4.58821   1.90247  -2.82569 
 H-HC-0.1060           5.24116   3.22812  -1.87397 
 
 The following ModRedundant input section has been read:
 D    *    5   25    * F                                                       
 Stoichiometry    C20H36N4O4
 Framework group  C1[X(C20H36N4O4)]
 Deg. of freedom   186
 Full point group                 C1      NOp   1
 Largest Abelian subgroup         C1      NOp   1
 Largest concise Abelian subgroup C1      NOp   1
                         Standard orientation:                         
 ---------------------------------------------------------------------
 Center     Atomic      Atomic             Coordinates (Angstroms)
 Number     Number       Type             X           Y           Z
 ---------------------------------------------------------------------
      1          6    20001001       -3.776431    2.885476    0.573849
      2          7    20001014       -4.123301    1.479445    0.575216
      3          6    20001002       -4.326178    0.833105   -0.596618
      4          8    20001024       -4.017165    1.304843   -1.655731
      5          6    90000001       -4.853050   -0.609917   -0.499251
      6          6    90000002       -5.459939   -1.026342   -1.843170
      7          6    90000002       -3.708985   -1.568695   -0.070926
      8          6    90000002       -2.465924   -1.696826   -0.969824
      9          6    90000002       -1.364031   -0.628684   -0.823057
     10          6    20001004       -0.813119   -0.502249    0.577938
     11          6    20001004        0.296905   -1.038015    1.059145
     12          6    90000002        1.288025   -1.910124    0.326438
     13          6    90000002        2.572981   -1.182125   -0.107692
     14          6    90000002        3.365866   -0.620726    1.080197
     15          6    90000002        4.767825   -0.019673    0.801108
     16          6    90000002        5.314703    0.521742    2.131989
     17          7    20001014        5.638949   -1.080726    0.314446
     18          6    20001002        6.894950   -0.815738   -0.149559
     19          6    20001001        7.523096   -1.926902   -0.959221
     20          8    20001024        7.463843    0.218374    0.065188
     21          6    20001002        4.633787    1.045009   -0.311192
     22          8    20001024        4.630880    0.716693   -1.467101
     23          7    20001014        4.419648    2.322095    0.072447
     24          6    20001001        4.335604    3.376816   -0.916847
     25          7    20001014       -5.852098   -0.719715    0.573725
     26          6    20001002       -7.014918   -0.007824    0.600833
     27          6    20001001       -8.055633   -0.513425    1.578278
     28          8    20001024       -7.199409    0.955416   -0.087841
     29          1    20001035       -4.586467    3.500298    0.198637
     30          1    20001035       -2.907412    3.046386   -0.047148
     31          1    20001035       -3.542513    3.184776    1.587780
     32          1    20001029       -4.614312    1.131616    1.365284
     33          1    20001034       -4.741905   -0.929494   -2.643157
     34          1    20001034       -5.789847   -2.059356   -1.785904
     35          1    20001034       -6.305984   -0.399486   -2.084387
     36          1    20001034       -4.161897   -2.555719   -0.008680
     37          1    20001034       -3.403064   -1.310389    0.938020
     38          1    20001034       -2.018848   -2.659722   -0.740536
     39          1    20001034       -2.764864   -1.744140   -2.011827
     40          1    20001034       -1.736102    0.335193   -1.145342
     41          1    20001034       -0.570970   -0.889801   -1.514942
     42          1    20001033       -1.402210    0.100881    1.249740
     43          1    20001033        0.535830   -0.833710    2.091102
     44          1    20001034        0.829112   -2.342408   -0.554468
     45          1    20001034        1.555067   -2.746923    0.970682
     46          1    20001034        3.175077   -1.885225   -0.676467
     47          1    20001034        2.317945   -0.385336   -0.793924
     48          1    20001034        3.506898   -1.403510    1.822420
     49          1    20001034        2.775768    0.154350    1.554952
     50          1    20001034        5.468743   -0.311058    2.808225
     51          1    20001034        4.606615    1.195806    2.602766
     52          1    20001034        6.259664    1.026792    1.998902
     53          1    20001029        5.177043   -1.832895   -0.143373
     54          1    20001034        8.595085   -1.800803   -0.960197
     55          1    20001034        7.163145   -1.856215   -1.981260
     56          1    20001034        7.268166   -2.907820   -0.572965
     57          1    20001029        4.665574    2.585371    0.997388
     58          1    20001035        4.042493    4.292925   -0.421114
     59          1    20001035        3.591668    3.123544   -1.657818
     60          1    20001035        5.283618    3.531765   -1.421838
     61          1    20001029       -5.846455   -1.577411    1.079564
     62          1    20001034       -8.736270    0.292388    1.811454
     63          1    20001034       -7.611145   -0.892398    2.491711
     64          1    20001034       -8.618024   -1.317869    1.115258
 ---------------------------------------------------------------------
 Rotational constants (GHZ):      0.4165998      0.0491799      0.0472480
 Standard basis: 6-31G(d) (6D, 7F)
 There are   492 symmetry adapted basis functions of A   symmetry.
 Integral buffers will be    131072 words long.
 Raffenetti 1 integral format.
 Two-electron integral symmetry is turned on.
   492 basis functions,   928 primitive gaussians,   492 cartesian basis functions
   108 alpha electrons      108 beta electrons
       nuclear repulsion energy      2683.4298909335 Hartrees.
 NAtoms=   64 NActive=   64 NUniq=   64 SFac= 7.50D-01 NAtFMM=   80 NAOKFM=F Big=T
 One-electron integrals computed using PRISM.
 NBasis=   492 RedAO= T  NBF=   492
 NBsUse=   492 1.00D-06 NBFU=   492
 Harris functional with IExCor=  205 diagonalized for initial guess.
 ExpMin= 1.61D-01 ExpMax= 5.48D+03 ExpMxC= 8.25D+02 IAcc=1 IRadAn=         1 AccDes= 0.00D+00
 HarFok:  IExCor=  205 AccDes= 0.00D+00 IRadAn=         1 IDoV= 1
 ScaDFX=  1.000000  1.000000  1.000000  1.000000
 FoFCou: FMM=F IPFlag=           0 FMFlag=      100000 FMFlg1=           1
         NFxFlg=           0 DoJE=T BraDBF=F KetDBF=T FulRan=T
         Omega=  0.000000  0.000000  1.000000  0.000000  0.000000 ICntrl=     500 IOpCl=  0
         NMat0=    1 NMatS0=    1 NMatT0=    0 NMatD0=    1 NMtDS0=    0 NMtDT0=    0
         I1Cent=           4 NGrid=           0.
 Petite list used in FoFCou.
 Initial guess orbital symmetries:
       Occupied  (A) (A) (A) (A) (A) (A) (A) (A) (A) (A) (A) (A)
                 (A) (A) (A) (A) (A) (A) (A) (A) (A) (A) (A) (A)
                 (A) (A) (A) (A) (A) (A) (A) (A) (A) (A) (A) (A)
                 (A) (A) (A) (A) (A) (A) (A) (A) (A) (A) (A) (A)
                 (A) (A) (A) (A) (A) (A) (A) (A) (A) (A) (A) (A)
                 (A) (A) (A) (A) (A) (A) (A) (A) (A) (A) (A) (A)
                 (A) (A) (A) (A) (A) (A) (A) (A) (A) (A) (A) (A)
                 (A) (A) (A) (A) (A) (A) (A) (A) (A) (A) (A) (A)
                 (A) (A) (A) (A) (A) (A) (A) (A) (A) (A) (A) (A)
       Virtual   (A) (A) (A) (A) (A) (A) (A) (A) (A) (A) (A) (A)
                 (A) (A) (A) (A) (A) (A) (A) (A) (A) (A) (A) (A)
                 (A) (A) (A) (A) (A) (A) (A) (A) (A) (A) (A) (A)
                 (A) (A) (A) (A) (A) (A) (A) (A) (A) (A) (A) (A)
                 (A) (A) (A) (A) (A) (A) (A) (A) (A) (A) (A) (A)
                 (A) (A) (A) (A) (A) (A) (A) (A) (A) (A) (A) (A)
                 (A) (A) (A) (A) (A) (A) (A) (A) (A) (A) (A) (A)
                 (A) (A) (A) (A) (A) (A) (A) (A) (A) (A) (A) (A)
                 (A) (A) (A) (A) (A) (A) (A) (A) (A) (A) (A) (A)
                 (A) (A) (A) (A) (A) (A) (A) (A) (A) (A) (A) (A)
                 (A) (A) (A) (A) (A) (A) (A) (A) (A) (A) (A) (A)
                 (A) (A) (A) (A) (A) (A) (A) (A) (A) (A) (A) (A)
                 (A) (A) (A) (A) (A) (A) (A) (A) (A) (A) (A) (A)
                 (A) (A) (A) (A) (A) (A) (A) (A) (A) (A) (A) (A)
                 (A) (A) (A) (A) (A) (A) (A) (A) (A) (A) (A) (A)
                 (A) (A) (A) (A) (A) (A) (A) (A) (A) (A) (A) (A)
                 (A) (A) (A) (A) (A) (A) (A) (A) (A) (A) (A) (A)
                 (A) (A) (A) (A) (A) (A) (A) (A) (A) (A) (A) (A)
                 (A) (A) (A) (A) (A) (A) (A) (A) (A) (A) (A) (A)
                 (A) (A) (A) (A) (A) (A) (A) (A) (A) (A) (A) (A)
                 (A) (A) (A) (A) (A) (A) (A) (A) (A) (A) (A) (A)
                 (A) (A) (A) (A) (A) (A) (A) (A) (A) (A) (A) (A)
                 (A) (A) (A) (A) (A) (A) (A) (A) (A) (A) (A) (A)
                 (A) (A) (A) (A) (A) (A) (A) (A) (A) (A) (A) (A)
                 (A) (A) (A) (A) (A) (A) (A) (A) (A) (A) (A) (A)
                 (A) (A) (A) (A) (A) (A) (A) (A) (A) (A) (A) (A)
                 (A) (A) (A) (A) (A) (A) (A) (A) (A) (A) (A) (A)
                 (A) (A) (A) (A) (A) (A) (A) (A) (A) (A) (A) (A)
                 (A) (A) (A) (A) (A) (A) (A) (A) (A) (A) (A) (A)
                 (A) (A) (A) (A) (A) (A) (A) (A) (A) (A) (A) (A)
                 (A) (A) (A) (A) (A) (A) (A) (A) (A) (A) (A) (A)
                 (A) (A) (A) (A) (A) (A) (A) (A) (A) (A) (A) (A)
 The electronic state of the initial guess is 1-A.
 Requested convergence on RMS density matrix=1.00D-08 within 128 cycles.
 Requested convergence on MAX density matrix=1.00D-06.
 Requested convergence on             energy=1.00D-06.
 No special actions if energy rises.
 Integral accuracy reduced to 1.0D-05 until final iterations.
 Initial convergence to 1.0D-05 achieved.  Increase integral accuracy.
 SCF Done:  E(RHF) =  -1295.62207910     A.U. after   14 cycles
             Convg  =    0.6077D-08             -V/T =  2.0012

 **********************************************************************

            Population analysis using the SCF density.

 **********************************************************************

 Orbital symmetries:
       Occupied  (A) (A) (A) (A) (A) (A) (A) (A) (A) (A) (A) (A)
                 (A) (A) (A) (A) (A) (A) (A) (A) (A) (A) (A) (A)
                 (A) (A) (A) (A) (A) (A) (A) (A) (A) (A) (A) (A)
                 (A) (A) (A) (A) (A) (A) (A) (A) (A) (A) (A) (A)
                 (A) (A) (A) (A) (A) (A) (A) (A) (A) (A) (A) (A)
                 (A) (A) (A) (A) (A) (A) (A) (A) (A) (A) (A) (A)
                 (A) (A) (A) (A) (A) (A) (A) (A) (A) (A) (A) (A)
                 (A) (A) (A) (A) (A) (A) (A) (A) (A) (A) (A) (A)
                 (A) (A) (A) (A) (A) (A) (A) (A) (A) (A) (A) (A)
       Virtual   (A) (A) (A) (A) (A) (A) (A) (A) (A) (A) (A) (A)
                 (A) (A) (A) (A) (A) (A) (A) (A) (A) (A) (A) (A)
                 (A) (A) (A) (A) (A) (A) (A) (A) (A) (A) (A) (A)
                 (A) (A) (A) (A) (A) (A) (A) (A) (A) (A) (A) (A)
                 (A) (A) (A) (A) (A) (A) (A) (A) (A) (A) (A) (A)
                 (A) (A) (A) (A) (A) (A) (A) (A) (A) (A) (A) (A)
                 (A) (A) (A) (A) (A) (A) (A) (A) (A) (A) (A) (A)
                 (A) (A) (A) (A) (A) (A) (A) (A) (A) (A) (A) (A)
                 (A) (A) (A) (A) (A) (A) (A) (A) (A) (A) (A) (A)
                 (A) (A) (A) (A) (A) (A) (A) (A) (A) (A) (A) (A)
                 (A) (A) (A) (A) (A) (A) (A) (A) (A) (A) (A) (A)
                 (A) (A) (A) (A) (A) (A) (A) (A) (A) (A) (A) (A)
                 (A) (A) (A) (A) (A) (A) (A) (A) (A) (A) (A) (A)
                 (A) (A) (A) (A) (A) (A) (A) (A) (A) (A) (A) (A)
                 (A) (A) (A) (A) (A) (A) (A) (A) (A) (A) (A) (A)
                 (A) (A) (A) (A) (A) (A) (A) (A) (A) (A) (A) (A)
                 (A) (A) (A) (A) (A) (A) (A) (A) (A) (A) (A) (A)
                 (A) (A) (A) (A) (A) (A) (A) (A) (A) (A) (A) (A)
                 (A) (A) (A) (A) (A) (A) (A) (A) (A) (A) (A) (A)
                 (A) (A) (A) (A) (A) (A) (A) (A) (A) (A) (A) (A)
                 (A) (A) (A) (A) (A) (A) (A) (A) (A) (A) (A) (A)
                 (A) (A) (A) (A) (A) (A) (A) (A) (A) (A) (A) (A)
                 (A) (A) (A) (A) (A) (A) (A) (A) (A) (A) (A) (A)
                 (A) (A) (A) (A) (A) (A) (A) (A) (A) (A) (A) (A)
                 (A) (A) (A) (A) (A) (A) (A) (A) (A) (A) (A) (A)
                 (A) (A) (A) (A) (A) (A) (A) (A) (A) (A) (A) (A)
                 (A) (A) (A) (A) (A) (A) (A) (A) (A) (A) (A) (A)
                 (A) (A) (A) (A) (A) (A) (A) (A) (A) (A) (A) (A)
                 (A) (A) (A) (A) (A) (A) (A) (A) (A) (A) (A) (A)
                 (A) (A) (A) (A) (A) (A) (A) (A) (A) (A) (A) (A)
                 (A) (A) (A) (A) (A) (A) (A) (A) (A) (A) (A) (A)
                 (A) (A) (A) (A) (A) (A) (A) (A) (A) (A) (A) (A)
 The electronic state is 1-A.
 Alpha  occ. eigenvalues --  -20.53655 -20.52037 -20.51851 -20.51572 -15.59612
 Alpha  occ. eigenvalues --  -15.57879 -15.57538 -15.57511 -11.35974 -11.34245
 Alpha  occ. eigenvalues --  -11.33865 -11.33659 -11.29029 -11.28554 -11.24955
 Alpha  occ. eigenvalues --  -11.24907 -11.24364 -11.24002 -11.23385 -11.22692
 Alpha  occ. eigenvalues --  -11.22546 -11.22507 -11.22340 -11.22221 -11.22018
 Alpha  occ. eigenvalues --  -11.21795 -11.21588 -11.20858  -1.40592  -1.39352
 Alpha  occ. eigenvalues --   -1.38709  -1.38074  -1.25436  -1.23537  -1.22591
 Alpha  occ. eigenvalues --   -1.22086  -1.10758  -1.09257  -1.07184  -1.04220
 Alpha  occ. eigenvalues --   -1.01230  -0.99321  -0.98730  -0.95526  -0.95122
 Alpha  occ. eigenvalues --   -0.94566  -0.92185  -0.87260  -0.85696  -0.82834
 Alpha  occ. eigenvalues --   -0.81341  -0.79480  -0.78766  -0.77186  -0.76857
 Alpha  occ. eigenvalues --   -0.71893  -0.71288  -0.71095  -0.68948  -0.67977
 Alpha  occ. eigenvalues --   -0.66705  -0.65852  -0.64525  -0.63950  -0.63702
 Alpha  occ. eigenvalues --   -0.62591  -0.62332  -0.61766  -0.61408  -0.61149
 Alpha  occ. eigenvalues --   -0.60918  -0.59897  -0.59334  -0.58710  -0.58428
 Alpha  occ. eigenvalues --   -0.58256  -0.57815  -0.56573  -0.56394  -0.56210
 Alpha  occ. eigenvalues --   -0.55488  -0.54846  -0.54737  -0.54560  -0.53951
 Alpha  occ. eigenvalues --   -0.53082  -0.52822  -0.52467  -0.52147  -0.51540
 Alpha  occ. eigenvalues --   -0.51036  -0.50302  -0.49762  -0.49260  -0.48544
 Alpha  occ. eigenvalues --   -0.48343  -0.46924  -0.46387  -0.44529  -0.42872
 Alpha  occ. eigenvalues --   -0.41942  -0.41488  -0.41052  -0.39295  -0.38821
 Alpha  occ. eigenvalues --   -0.38322  -0.38263  -0.34507
 Alpha virt. eigenvalues --    0.17332   0.18795   0.19668   0.19989   0.20235
 Alpha virt. eigenvalues --    0.21608   0.21983   0.23166   0.23256   0.23940
 Alpha virt. eigenvalues --    0.25299   0.25649   0.26548   0.27119   0.27652
 Alpha virt. eigenvalues --    0.27919   0.28172   0.28830   0.29212   0.29507
 Alpha virt. eigenvalues --    0.29584   0.30199   0.31165   0.31506   0.31665
 Alpha virt. eigenvalues --    0.32039   0.32354   0.32571   0.33296   0.33681
 Alpha virt. eigenvalues --    0.33902   0.34422   0.34700   0.35027   0.35352
 Alpha virt. eigenvalues --    0.35558   0.35825   0.36534   0.37126   0.37401
 Alpha virt. eigenvalues --    0.38281   0.38685   0.39362   0.39543   0.39982
 Alpha virt. eigenvalues --    0.40500   0.41330   0.42060   0.42641   0.43889
 Alpha virt. eigenvalues --    0.44794   0.44932   0.45570   0.45791   0.47063
 Alpha virt. eigenvalues --    0.47327   0.48809   0.49176   0.52236   0.52829
 Alpha virt. eigenvalues --    0.53935   0.55123   0.57767   0.58827   0.59770
 Alpha virt. eigenvalues --    0.61998   0.63319   0.64440   0.68917   0.70148
 Alpha virt. eigenvalues --    0.70921   0.71400   0.71983   0.72628   0.73240
 Alpha virt. eigenvalues --    0.73477   0.74429   0.75100   0.76034   0.76511
 Alpha virt. eigenvalues --    0.76778   0.77215   0.77794   0.78493   0.78977
 Alpha virt. eigenvalues --    0.79669   0.79933   0.80590   0.81194   0.82289
 Alpha virt. eigenvalues --    0.83152   0.84038   0.84861   0.85497   0.86337
 Alpha virt. eigenvalues --    0.87286   0.88177   0.88836   0.90105   0.90565
 Alpha virt. eigenvalues --    0.91528   0.92355   0.92629   0.93057   0.93859
 Alpha virt. eigenvalues --    0.94636   0.95764   0.96835   0.97132   0.97865
 Alpha virt. eigenvalues --    0.98542   0.98900   0.99842   1.00305   1.00479
 Alpha virt. eigenvalues --    1.01497   1.02217   1.02337   1.02927   1.03806
 Alpha virt. eigenvalues --    1.03994   1.04394   1.05584   1.06651   1.06769
 Alpha virt. eigenvalues --    1.07552   1.08180   1.08699   1.10434   1.11049
 Alpha virt. eigenvalues --    1.11947   1.12094   1.13099   1.13525   1.14206
 Alpha virt. eigenvalues --    1.14513   1.14791   1.15068   1.15329   1.15994
 Alpha virt. eigenvalues --    1.16094   1.16584   1.16842   1.17611   1.18080
 Alpha virt. eigenvalues --    1.18280   1.18476   1.18902   1.19134   1.19374
 Alpha virt. eigenvalues --    1.19546   1.19946   1.20570   1.21072   1.21438
 Alpha virt. eigenvalues --    1.21815   1.22136   1.22335   1.22615   1.22725
 Alpha virt. eigenvalues --    1.23253   1.23688   1.24094   1.25260   1.25860
 Alpha virt. eigenvalues --    1.26240   1.26915   1.27437   1.28314   1.29004
 Alpha virt. eigenvalues --    1.29691   1.30515   1.31151   1.31906   1.32658
 Alpha virt. eigenvalues --    1.33370   1.34195   1.35738   1.36190   1.36904
 Alpha virt. eigenvalues --    1.38381   1.38897   1.40581   1.42027   1.42299
 Alpha virt. eigenvalues --    1.43948   1.45385   1.46704   1.47513   1.48468
 Alpha virt. eigenvalues --    1.50753   1.51547   1.53835   1.54384   1.55193
 Alpha virt. eigenvalues --    1.56760   1.58573   1.59482   1.60594   1.61426
 Alpha virt. eigenvalues --    1.61924   1.63819   1.65264   1.66451   1.68352
 Alpha virt. eigenvalues --    1.69443   1.71410   1.71692   1.72436   1.73016
 Alpha virt. eigenvalues --    1.73740   1.74722   1.78269   1.79126   1.79778
 Alpha virt. eigenvalues --    1.80527   1.81412   1.82965   1.86949   1.87927
 Alpha virt. eigenvalues --    1.89626   1.90583   1.91450   1.92947   1.94815
 Alpha virt. eigenvalues --    1.96064   1.96727   1.98537   1.99879   2.01696
 Alpha virt. eigenvalues --    2.04536   2.05702   2.06213   2.07255   2.08168
 Alpha virt. eigenvalues --    2.08545   2.10989   2.11606   2.12123   2.12354
 Alpha virt. eigenvalues --    2.12607   2.13347   2.14385   2.15777   2.16025
 Alpha virt. eigenvalues --    2.16324   2.17972   2.18301   2.19020   2.19226
 Alpha virt. eigenvalues --    2.20305   2.21420   2.21912   2.22973   2.23291
 Alpha virt. eigenvalues --    2.24850   2.25727   2.26135   2.26582   2.27369
 Alpha virt. eigenvalues --    2.28257   2.29329   2.29868   2.31299   2.31501
 Alpha virt. eigenvalues --    2.32861   2.34119   2.34604   2.35324   2.36143
 Alpha virt. eigenvalues --    2.36985   2.37199   2.37827   2.38369   2.39342
 Alpha virt. eigenvalues --    2.39704   2.40950   2.41915   2.43441   2.45065
 Alpha virt. eigenvalues --    2.45685   2.45906   2.47606   2.49194   2.50215
 Alpha virt. eigenvalues --    2.51555   2.52327   2.54471   2.55116   2.55855
 Alpha virt. eigenvalues --    2.56868   2.57197   2.57625   2.59308   2.60429
 Alpha virt. eigenvalues --    2.62480   2.63307   2.64258   2.64527   2.65139
 Alpha virt. eigenvalues --    2.66392   2.68654   2.70053   2.70619   2.71089
 Alpha virt. eigenvalues --    2.72153   2.73390   2.74523   2.75112   2.76300
 Alpha virt. eigenvalues --    2.76653   2.77906   2.78661   2.79386   2.79547
 Alpha virt. eigenvalues --    2.81298   2.82523   2.84029   2.85015   2.86367
 Alpha virt. eigenvalues --    2.87716   2.88441   2.90979   2.91807   2.95842
 Alpha virt. eigenvalues --    2.96668   2.97792   2.98340   2.98803   3.02091
 Alpha virt. eigenvalues --    3.03395   3.04583   3.05515   3.06503   3.06526
 Alpha virt. eigenvalues --    3.11065   3.11315   3.13059   3.14002   3.15662
 Alpha virt. eigenvalues --    3.16807   3.18553   3.22217   3.29611   3.30619
 Alpha virt. eigenvalues --    3.34416   3.34610   3.38739   3.40529   3.41307
 Alpha virt. eigenvalues --    3.42729   3.43009   3.53286   3.55738   3.57608
 Alpha virt. eigenvalues --    3.60150   4.38459   4.40921   4.44697   4.46849
 Alpha virt. eigenvalues --    4.49191   4.51910   4.55164   4.57558   4.61420
 Alpha virt. eigenvalues --    4.63424   4.66479   4.67487   4.68565   4.70148
 Alpha virt. eigenvalues --    4.71362   4.77150   4.78958   4.82874   4.83911
 Alpha virt. eigenvalues --    4.87927   4.89397   4.93779   4.95273   4.98957
 Alpha virt. eigenvalues --    5.02222   5.11988   5.21924   5.23601
          Condensed to atoms (all electrons):
 Mulliken atomic charges:
              1
     1  C   -0.279648
     2  N   -0.783333
     3  C    0.821923
     4  O   -0.628166
     5  C    0.102207
     6  C   -0.472645
     7  C   -0.334182
     8  C   -0.311927
     9  C   -0.373785
    10  C   -0.179012
    11  C   -0.177035
    12  C   -0.353473
    13  C   -0.310562
    14  C   -0.329075
    15  C    0.091045
    16  C   -0.509590
    17  N   -0.787620
    18  C    0.767307
    19  C   -0.595692
    20  O   -0.613867
    21  C    0.820609
    22  O   -0.639319
    23  N   -0.805953
    24  C   -0.275607
    25  N   -0.842977
    26  C    0.744488
    27  C   -0.588672
    28  O   -0.591782
    29  H    0.187046
    30  H    0.198268
    31  H    0.162146
    32  H    0.391314
    33  H    0.199005
    34  H    0.144103
    35  H    0.212327
    36  H    0.161313
    37  H    0.182162
    38  H    0.164444
    39  H    0.179855
    40  H    0.213493
    41  H    0.175186
    42  H    0.180424
    43  H    0.169612
    44  H    0.176833
    45  H    0.160138
    46  H    0.151043
    47  H    0.199600
    48  H    0.173063
    49  H    0.185084
    50  H    0.183452
    51  H    0.148359
    52  H    0.226625
    53  H    0.389770
    54  H    0.211158
    55  H    0.209514
    56  H    0.176238
    57  H    0.395262
    58  H    0.164863
    59  H    0.199890
    60  H    0.184949
    61  H    0.382605
    62  H    0.218612
    63  H    0.177196
    64  H    0.201392
 Sum of Mulliken atomic charges =   0.00000
 Mulliken charges with hydrogens summed into heavy atoms:
              1
     1  C    0.267813
     2  N   -0.392019
     3  C    0.821923
     4  O   -0.628166
     5  C    0.102207
     6  C    0.082790
     7  C    0.009293
     8  C    0.032371
     9  C    0.014894
    10  C    0.001413
    11  C   -0.007423
    12  C   -0.016502
    13  C    0.040080
    14  C    0.029072
    15  C    0.091045
    16  C    0.048846
    17  N   -0.397850
    18  C    0.767307
    19  C    0.001218
    20  O   -0.613867
    21  C    0.820609
    22  O   -0.639319
    23  N   -0.410691
    24  C    0.274095
    25  N   -0.460372
    26  C    0.744488
    27  C    0.008528
    28  O   -0.591782
 Sum of Mulliken charges with hydrogens summed into heavy atoms =   0.00000
 Electronic spatial extent (au):  <R**2>=          22136.5050
 Charge=              0.0000 electrons
 Dipole moment (field-independent basis, Debye):
    X=             -2.7974    Y=             -4.4885    Z=              6.4131  Tot=              8.3127
 Quadrupole moment (field-independent basis, Debye-Ang):
   XX=           -194.3217   YY=           -155.8807   ZZ=           -173.3909
   XY=             14.1367   XZ=            -17.8640   YZ=              9.8564
 Traceless Quadrupole moment (field-independent basis, Debye-Ang):
   XX=            -19.7906   YY=             18.6504   ZZ=              1.1402
   XY=             14.1367   XZ=            -17.8640   YZ=              9.8564
 Octapole moment (field-independent basis, Debye-Ang**2):
  XXX=           -286.5401  YYY=             48.7890  ZZZ=             16.1615  XYY=             58.8818
  XXY=           -237.7375  XXZ=            163.8645  XZZ=            -10.4192  YZZ=             -0.4374
  YYZ=              5.4603  XYZ=              2.6877
 Hexadecapole moment (field-independent basis, Debye-Ang**3):
 XXXX=         -27207.1983 YYYY=          -2277.4773 ZZZZ=          -1299.2529 XXXY=            351.9959
 XXXZ=          -1051.8334 YYYX=             85.5803 YYYZ=              2.9098 ZZZX=            -53.5052
 ZZZY=             19.6423 XXYY=          -4263.3575 XXZZ=          -4354.9916 YYZZ=           -613.8471
 XXYZ=            213.7167 YYXZ=            -80.8676 ZZXY=             27.3076
 N-N= 2.683429890934D+03 E-N=-8.398918719001D+03  KE= 1.294015905370D+03
 1\1\GINC-MOSURA\SP\RHF\6-31G(d)\C20H36N4O4\MARIE\05-Dec-2019\0\\#SP HF
 /6-31G* Geom=(ModRedundant)\\paramfit run\\0,1\C,0,0.,0.,0.\N,0,1.4481
 87,0.,0.\C,0,2.1232,0.47592,1.072365\O,0,1.590179,0.696732,2.124447\C,
 0,3.650505,0.594143,0.921539\C,0,4.198902,1.549248,1.986845\C,0,4.3077
 51,-0.809116,1.023981\C,0,4.133566,-1.622781,2.319066\C,0,2.832729,-2.
 433298,2.484965\C,0,2.579342,-3.423586,1.372579\C,0,2.834093,-4.721989
 ,1.375535\C,0,3.442731,-5.535663,2.492337\C,0,2.42774,-6.370218,3.2941
 33\C,0,1.693892,-7.402618,2.427801\C,0,0.774274,-8.428536,3.139447\C,0
 ,0.118887,-9.296969,2.053288\N,0,1.59533,-9.267679,4.001559\C,0,1.0367
 79,-10.167772,4.862321\C,0,1.96438,-10.678762,5.940862\O,0,-0.103289,-
 10.530888,4.775526\C,0,-0.228361,-7.657085,4.027316\O,0,0.090004,-7.29
 6707,5.128542\N,0,-1.416619,-7.323616,3.478843\C,0,-2.421442,-6.64525,
 4.271531\N,0,3.997412,1.070275,-0.425452\C,0,3.584788,2.265972,-0.9350
 82\C,0,4.325866,2.727395,-2.172826\O,0,2.693127,2.902553,-0.449444\H,0
 ,-0.403259,1.006147,0.\H,0,-0.36496,-0.516002,0.875939\H,0,-0.345658,-
 0.522086,-0.883346\H,0,1.904244,0.070913,-0.879357\H,0,3.932135,1.2217
 6,2.980082\H,0,5.28092,1.595925,1.9075\H,0,3.792711,2.540594,1.848395\
 H,0,5.374584,-0.64325,0.891407\H,0,3.984642,-1.403324,0.174983\H,0,4.9
 61565,-2.324757,2.354635\H,0,4.250121,-0.975721,3.182259\H,0,1.985724,
 -1.764045,2.562723\H,0,2.895638,-2.94811,3.437249\H,0,2.135502,-3.0091
 81,0.481856\H,0,2.579482,-5.276386,0.485828\H,0,3.971519,-4.889909,3.1
 82881\H,0,4.191817,-6.202016,2.066382\H,0,2.965623,-6.85691,4.102952\H
 ,0,1.714584,-5.707921,3.766998\H,0,2.42081,-7.979938,1.860503\H,0,1.08
 3167,-6.875737,1.704087\H,0,0.891187,-9.872528,1.556434\H,0,-0.36551,-
 8.684705,1.299714\H,0,-0.597925,-9.98679,2.472891\H,0,2.435807,-8.8478
 4,4.327205\H,0,1.585188,-11.616367,6.31792\H,0,1.981002,-9.957975,6.75
 2844\H,0,2.97817,-10.810647,5.57862\H,0,-1.730263,-7.831365,2.685667\H
 ,0,-3.24021,-6.362494,3.623002\H,0,-1.998054,-5.755067,4.713054\H,0,-2
 .799425,-7.276973,5.068907\H,0,4.829267,0.686389,-0.815575\H,0,3.70675
 6,3.43268,-2.707848\H,0,4.588206,1.902473,-2.82569\H,0,5.241161,3.2281
 16,-1.873969\\Version=EM64L-G09RevA.02\State=1-A\HF=-1295.6220791\RMSD
 =6.077e-09\Dipole=1.9805196,-0.3401602,-2.5802569\Quadrupole=17.107347
 6,-25.4788587,8.3715111,3.9506887,2.6691802,-4.0759788\PG=C01 [X(C20H3
 6N4O4)]\\@


 IF YOU WANT TO LEARN FROM THE THEORETICAL PHYSICISTS ABOUT THE
 METHODS WHICH THEY USE, I ADVISE YOU TO FOLLOW THIS PRINCIPLE VERY STRICTLY:
 DON'T LISTEN TO THEIR WORDS; PAY ATTENTION, INSTEAD, TO THEIR ACTIONS.
 -- A.EINSTEIN, 1934
 Job cpu time:  0 days  0 hours  5 minutes 13.2 seconds.
 File lengths (MBytes):  RWF=    132 Int=      0 D2E=      0 Chk=     10 Scr=      1
 Normal termination of Gaussian 09 at Thu Dec  5 15:59:39 2019.
