 Entering Gaussian System, Link 0=g09
 Input=PHI_50.gau
 Output=PHI_50.log
 Initial command:
 /home/marie/Utilities//g09/l1.exe /tmp/g09/Gau-5816.inp -scrdir=/tmp/g09/
 Entering Link 1 = /home/marie/Utilities//g09/l1.exe PID=      5818.
  
 Copyright (c) 1988,1990,1992,1993,1995,1998,2003,2009, Gaussian, Inc.
                  All Rights Reserved.
  
 This is part of the Gaussian(R) 09 program.  It is based on
 the Gaussian(R) 03 system (copyright 2003, Gaussian, Inc.),
 the Gaussian(R) 98 system (copyright 1998, Gaussian, Inc.),
 the Gaussian(R) 94 system (copyright 1995, Gaussian, Inc.),
 the Gaussian 92(TM) system (copyright 1992, Gaussian, Inc.),
 the Gaussian 90(TM) system (copyright 1990, Gaussian, Inc.),
 the Gaussian 88(TM) system (copyright 1988, Gaussian, Inc.),
 the Gaussian 86(TM) system (copyright 1986, Carnegie Mellon
 University), and the Gaussian 82(TM) system (copyright 1983,
 Carnegie Mellon University). Gaussian is a federally registered
 trademark of Gaussian, Inc.
  
 This software contains proprietary and confidential information,
 including trade secrets, belonging to Gaussian, Inc.
  
 This software is provided under written license and may be
 used, copied, transmitted, or stored only in accord with that
 written license.
  
 The following legend is applicable only to US Government
 contracts under FAR:
  
                    RESTRICTED RIGHTS LEGEND
  
 Use, reproduction and disclosure by the US Government is
 subject to restrictions as set forth in subparagraphs (a)
 and (c) of the Commercial Computer Software - Restricted
 Rights clause in FAR 52.227-19.
  
 Gaussian, Inc.
 340 Quinnipiac St., Bldg. 40, Wallingford CT 06492
  
  
 ---------------------------------------------------------------
 Warning -- This program may not be used in any manner that
 competes with the business of Gaussian, Inc. or will provide
 assistance to any competitor of Gaussian, Inc.  The licensee
 of this program is prohibited from giving any competitor of
 Gaussian, Inc. access to this program.  By using this program,
 the user acknowledges that Gaussian, Inc. is engaged in the
 business of creating and licensing software in the field of
 computational chemistry and represents and warrants to the
 licensee that it is not a competitor of Gaussian, Inc. and that
 it will not use this program in any manner prohibited above.
 ---------------------------------------------------------------
  

 Cite this work as:
 Gaussian 09, Revision A.02,
 M. J. Frisch, G. W. Trucks, H. B. Schlegel, G. E. Scuseria, 
 M. A. Robb, J. R. Cheeseman, G. Scalmani, V. Barone, B. Mennucci, 
 G. A. Petersson, H. Nakatsuji, M. Caricato, X. Li, H. P. Hratchian, 
 A. F. Izmaylov, J. Bloino, G. Zheng, J. L. Sonnenberg, M. Hada, 
 M. Ehara, K. Toyota, R. Fukuda, J. Hasegawa, M. Ishida, T. Nakajima, 
 Y. Honda, O. Kitao, H. Nakai, T. Vreven, J. A. Montgomery, Jr., 
 J. E. Peralta, F. Ogliaro, M. Bearpark, J. J. Heyd, E. Brothers, 
 K. N. Kudin, V. N. Staroverov, R. Kobayashi, J. Normand, 
 K. Raghavachari, A. Rendell, J. C. Burant, S. S. Iyengar, J. Tomasi, 
 M. Cossi, N. Rega, J. M. Millam, M. Klene, J. E. Knox, J. B. Cross, 
 V. Bakken, C. Adamo, J. Jaramillo, R. Gomperts, R. E. Stratmann, 
 O. Yazyev, A. J. Austin, R. Cammi, C. Pomelli, J. W. Ochterski, 
 R. L. Martin, K. Morokuma, V. G. Zakrzewski, G. A. Voth, 
 P. Salvador, J. J. Dannenberg, S. Dapprich, A. D. Daniels, 
 O. Farkas, J. B. Foresman, J. V. Ortiz, J. Cioslowski, 
 and D. J. Fox, Gaussian, Inc., Wallingford CT, 2009.
 
 ******************************************
 Gaussian 09:  EM64L-G09RevA.02 11-Jun-2009
                 5-Dec-2019 
 ******************************************
 %chk=PHI_50
 %NoSave
 ---------------------------------
 #SP HF/6-31G* Geom=(ModRedundant)
 ---------------------------------
 1/18=120,38=1/1;
 2/12=2,17=6,18=5,40=1/2;
 3/5=1,6=6,7=1,11=9,16=1,25=1,30=1/1,2,3;
 4//1;
 5/5=2,38=5/2;
 6/7=2,8=2,9=2,10=2,28=1/1;
 99/5=1,9=1/99;
 ------------
 paramfit run
 ------------
 Symbolic Z-matrix:
 Charge =  0 Multiplicity = 1
 C-CT--0.3208          0.        0.        0. 
 N-N--0.5622           1.44819   0.        0. 
 C-C-0.8053            2.1232    0.47592   1.07237 
 O-O--0.6151           1.59018   0.69673   2.12445 
 C-CX-0.0839           3.65051   0.59414   0.92154 
 C-CU--0.3230          4.1989    1.54925   1.98685 
 C-CU--0.0657          4.30775  -0.80912   1.02398 
 C-CU--0.0109          4.13357  -1.62278   2.31907 
 C-CU-0.0816           2.83273  -2.4333    2.48497 
 C-CM--0.2354          2.57934  -3.42359   1.37258 
 C-CM--0.2653          2.83409  -4.72199   1.37554 
 C-CU-0.1214           3.44273  -5.53566   2.49234 
 C-CU--0.0354          2.42774  -6.37022   3.29413 
 C-CU--0.0984          1.69389  -7.40262   2.4278 
 C-CU-0.1300           0.77427  -8.42854   3.13945 
 C-CU--0.3561          0.11889  -9.29697   2.05329 
 N-N--0.7186           1.59533  -9.26768   4.00156 
 C-C-0.8537            1.03678  -10.16777   4.86232 
 C-CT--0.3868          1.96438  -10.67876   5.94086 
 O-O--0.6323          -0.10329  -10.53089   4.77553 
 C-C-0.7903           -0.22836  -7.65709   4.02732 
 O-O--0.6136           0.09     -7.29671   5.12854 
 N-N--0.5650          -1.41662  -7.32362   3.47884 
 C-CT--0.3231         -2.42144  -6.64525   4.27153 
 N-N--0.7191           3.99741   1.07028  -0.42545 
 C-C-0.8539            3.4322    2.165    -1.01007 
 C-CT--0.3903          4.16344   2.69378  -2.22654 
 O-O--0.6290           2.42388   2.66774  -0.60179 
 H-H1-0.1459          -0.40326   1.00615   0. 
 H-H1-0.1459          -0.36496  -0.516     0.87594 
 H-H1-0.1459          -0.34566  -0.52209  -0.88335 
 H-H-0.3572            1.90424   0.07091  -0.87936 
 H-HC-0.0997           3.93214   1.22176   2.98008 
 H-HC-0.0997           5.28092   1.59593   1.9075 
 H-HC-0.0997           3.79271   2.54059   1.8484 
 H-HC-0.0347           5.37458  -0.64325   0.89141 
 H-HC-0.0347           3.98464  -1.40332   0.17498 
 H-HC-0.0243           4.96157  -2.32476   2.35464 
 H-HC-0.0243           4.25012  -0.97572   3.18226 
 H-HC-0.0171           1.98572  -1.76405   2.56272 
 H-HC-0.0171           2.89564  -2.94811   3.43725 
 H-HA-0.1313           2.1355   -3.00918   0.48186 
 H-HA-0.1359           2.57948  -5.27639   0.48583 
 H-HC-0.0092           3.97152  -4.88991   3.18288 
 H-HC-0.0092           4.19182  -6.20202   2.06638 
 H-HC-0.0318           2.96562  -6.85691   4.10295 
 H-HC-0.0318           1.71458  -5.70792   3.767 
 H-HC-0.0435           2.42081  -7.97994   1.8605 
 H-HC-0.0435           1.08317  -6.87574   1.70409 
 H-HC-0.1066           0.89119  -9.87253   1.55643 
 H-HC-0.1066          -0.36551  -8.68471   1.29971 
 H-HC-0.1066          -0.59793  -9.98679   2.47289 
 H-H-0.3529            2.43581  -8.84784   4.32721 
 H-HC-0.1047           1.58519  -11.61637   6.31792 
 H-HC-0.1047           1.981    -9.95798   6.75284 
 H-HC-0.1047           2.97817  -10.81065   5.57862 
 H-H-0.3615           -1.73026  -7.83136   2.68567 
 H-H1-0.1469          -3.24021  -6.36249   3.623 
 H-H1-0.1469          -1.99805  -5.75507   4.71305 
 H-H1-0.1469          -2.79943  -7.27697   5.06891 
 H-H-0.3570            4.90118   0.8107   -0.75311 
 H-HC-0.1060           3.47367   3.27074  -2.82512 
 H-HC-0.1060           4.59116   1.89831  -2.8264 
 H-HC-0.1060           4.96873   3.34527  -1.90272 
 
 The following ModRedundant input section has been read:
 D    *    5   25    * F                                                       
 Stoichiometry    C20H36N4O4
 Framework group  C1[X(C20H36N4O4)]
 Deg. of freedom   186
 Full point group                 C1      NOp   1
 Largest Abelian subgroup         C1      NOp   1
 Largest concise Abelian subgroup C1      NOp   1
                         Standard orientation:                         
 ---------------------------------------------------------------------
 Center     Atomic      Atomic             Coordinates (Angstroms)
 Number     Number       Type             X           Y           Z
 ---------------------------------------------------------------------
      1          6    20001001       -3.807283    2.855394    0.491162
      2          7    20001014       -4.146136    1.447663    0.517960
      3          6    20001002       -4.340681    0.777996   -0.642130
      4          8    20001024       -4.030168    1.231286   -1.708833
      5          6    90000001       -4.859701   -0.665932   -0.519339
      6          6    90000002       -5.458877   -1.111334   -1.857414
      7          6    90000002       -3.711895   -1.609769   -0.068433
      8          6    90000002       -2.464573   -1.747791   -0.959934
      9          6    90000002       -1.369376   -0.670706   -0.829284
     10          6    20001004       -0.824748   -0.514474    0.571162
     11          6    20001004        0.286396   -1.034574    1.066755
     12          6    90000002        1.285366   -1.914721    0.354607
     13          6    90000002        2.567862   -1.187701   -0.088350
     14          6    90000002        3.352821   -0.599246    1.091682
     15          6    90000002        4.752426    0.004477    0.806604
     16          6    90000002        5.290932    0.574250    2.129034
     17          7    20001014        5.631505   -1.060591    0.343591
     18          6    20001002        6.887803   -0.797226   -0.120533
     19          6    20001001        7.525476   -1.919939   -0.906467
     20          8    20001024        7.449938    0.244050    0.076678
     21          6    20001002        4.616729    1.047024   -0.326271
     22          8    20001024        4.620274    0.696775   -1.475723
     23          7    20001014        4.393796    2.329915    0.032157
     24          6    20001001        4.307662    3.365131   -0.977354
     25          7    20001014       -5.862350   -0.761074    0.551676
     26          6    20001002       -6.930064    0.079561    0.665654
     27          6    20001001       -8.022339   -0.391932    1.603069
     28          8    20001024       -6.997730    1.121961    0.078318
     29          1    20001035       -4.619318    3.458282    0.101194
     30          1    20001035       -2.936741    3.009481   -0.129433
     31          1    20001035       -3.579094    3.175265    1.500104
     32          1    20001029       -4.638282    1.112090    1.312610
     33          1    20001034       -4.738243   -1.025572   -2.656328
     34          1    20001034       -5.783116   -2.144961   -1.781764
     35          1    20001034       -6.307519   -0.494074   -2.113780
     36          1    20001034       -4.159417   -2.598030    0.010846
     37          1    20001034       -3.411451   -1.330562    0.936582
     38          1    20001034       -2.012927   -2.703554   -0.710635
     39          1    20001034       -2.759108   -1.816635   -2.001991
     40          1    20001034       -1.745655    0.284704   -1.171292
     41          1    20001034       -0.572104   -0.940349   -1.513013
     42          1    20001033       -1.419925    0.097910    1.229086
     43          1    20001033        0.520063   -0.809307    2.095548
     44          1    20001034        0.832419   -2.366320   -0.519671
     45          1    20001034        1.554619   -2.737562    1.015690
     46          1    20001034        3.176204   -1.898001   -0.641312
     47          1    20001034        2.311009   -0.405591   -0.790604
     48          1    20001034        3.495371   -1.366947    1.849211
     49          1    20001034        2.756438    0.181297    1.549319
     50          1    20001034        5.447036   -0.244637    2.821591
     51          1    20001034        4.577154    1.253044    2.584161
     52          1    20001034        6.233519    1.082126    1.989997
     53          1    20001029        5.175712   -1.823984   -0.101602
     54          1    20001034        8.596724   -1.787694   -0.905714
     55          1    20001034        7.169180   -1.870779   -1.931046
     56          1    20001034        7.274613   -2.894791   -0.502592
     57          1    20001029        4.634551    2.612148    0.952859
     58          1    20001035        4.007372    4.288794   -0.500284
     59          1    20001035        3.568123    3.093524   -1.716230
     60          1    20001035        5.256770    3.515921   -1.481547
     61          1    20001029       -5.959791   -1.659399    0.970084
     62          1    20001034       -8.599587    0.462732    1.924486
     63          1    20001034       -7.625168   -0.911081    2.468106
     64          1    20001034       -8.679255   -1.072373    1.070844
 ---------------------------------------------------------------------
 Rotational constants (GHZ):      0.4133417      0.0495254      0.0475690
 Standard basis: 6-31G(d) (6D, 7F)
 There are   492 symmetry adapted basis functions of A   symmetry.
 Integral buffers will be    131072 words long.
 Raffenetti 1 integral format.
 Two-electron integral symmetry is turned on.
   492 basis functions,   928 primitive gaussians,   492 cartesian basis functions
   108 alpha electrons      108 beta electrons
       nuclear repulsion energy      2687.8242845585 Hartrees.
 NAtoms=   64 NActive=   64 NUniq=   64 SFac= 7.50D-01 NAtFMM=   80 NAOKFM=F Big=T
 One-electron integrals computed using PRISM.
 NBasis=   492 RedAO= T  NBF=   492
 NBsUse=   492 1.00D-06 NBFU=   492
 Harris functional with IExCor=  205 diagonalized for initial guess.
 ExpMin= 1.61D-01 ExpMax= 5.48D+03 ExpMxC= 8.25D+02 IAcc=1 IRadAn=         1 AccDes= 0.00D+00
 HarFok:  IExCor=  205 AccDes= 0.00D+00 IRadAn=         1 IDoV= 1
 ScaDFX=  1.000000  1.000000  1.000000  1.000000
 FoFCou: FMM=F IPFlag=           0 FMFlag=      100000 FMFlg1=           1
         NFxFlg=           0 DoJE=T BraDBF=F KetDBF=T FulRan=T
         Omega=  0.000000  0.000000  1.000000  0.000000  0.000000 ICntrl=     500 IOpCl=  0
         NMat0=    1 NMatS0=    1 NMatT0=    0 NMatD0=    1 NMtDS0=    0 NMtDT0=    0
         I1Cent=           4 NGrid=           0.
 Petite list used in FoFCou.
 Initial guess orbital symmetries:
       Occupied  (A) (A) (A) (A) (A) (A) (A) (A) (A) (A) (A) (A)
                 (A) (A) (A) (A) (A) (A) (A) (A) (A) (A) (A) (A)
                 (A) (A) (A) (A) (A) (A) (A) (A) (A) (A) (A) (A)
                 (A) (A) (A) (A) (A) (A) (A) (A) (A) (A) (A) (A)
                 (A) (A) (A) (A) (A) (A) (A) (A) (A) (A) (A) (A)
                 (A) (A) (A) (A) (A) (A) (A) (A) (A) (A) (A) (A)
                 (A) (A) (A) (A) (A) (A) (A) (A) (A) (A) (A) (A)
                 (A) (A) (A) (A) (A) (A) (A) (A) (A) (A) (A) (A)
                 (A) (A) (A) (A) (A) (A) (A) (A) (A) (A) (A) (A)
       Virtual   (A) (A) (A) (A) (A) (A) (A) (A) (A) (A) (A) (A)
                 (A) (A) (A) (A) (A) (A) (A) (A) (A) (A) (A) (A)
                 (A) (A) (A) (A) (A) (A) (A) (A) (A) (A) (A) (A)
                 (A) (A) (A) (A) (A) (A) (A) (A) (A) (A) (A) (A)
                 (A) (A) (A) (A) (A) (A) (A) (A) (A) (A) (A) (A)
                 (A) (A) (A) (A) (A) (A) (A) (A) (A) (A) (A) (A)
                 (A) (A) (A) (A) (A) (A) (A) (A) (A) (A) (A) (A)
                 (A) (A) (A) (A) (A) (A) (A) (A) (A) (A) (A) (A)
                 (A) (A) (A) (A) (A) (A) (A) (A) (A) (A) (A) (A)
                 (A) (A) (A) (A) (A) (A) (A) (A) (A) (A) (A) (A)
                 (A) (A) (A) (A) (A) (A) (A) (A) (A) (A) (A) (A)
                 (A) (A) (A) (A) (A) (A) (A) (A) (A) (A) (A) (A)
                 (A) (A) (A) (A) (A) (A) (A) (A) (A) (A) (A) (A)
                 (A) (A) (A) (A) (A) (A) (A) (A) (A) (A) (A) (A)
                 (A) (A) (A) (A) (A) (A) (A) (A) (A) (A) (A) (A)
                 (A) (A) (A) (A) (A) (A) (A) (A) (A) (A) (A) (A)
                 (A) (A) (A) (A) (A) (A) (A) (A) (A) (A) (A) (A)
                 (A) (A) (A) (A) (A) (A) (A) (A) (A) (A) (A) (A)
                 (A) (A) (A) (A) (A) (A) (A) (A) (A) (A) (A) (A)
                 (A) (A) (A) (A) (A) (A) (A) (A) (A) (A) (A) (A)
                 (A) (A) (A) (A) (A) (A) (A) (A) (A) (A) (A) (A)
                 (A) (A) (A) (A) (A) (A) (A) (A) (A) (A) (A) (A)
                 (A) (A) (A) (A) (A) (A) (A) (A) (A) (A) (A) (A)
                 (A) (A) (A) (A) (A) (A) (A) (A) (A) (A) (A) (A)
                 (A) (A) (A) (A) (A) (A) (A) (A) (A) (A) (A) (A)
                 (A) (A) (A) (A) (A) (A) (A) (A) (A) (A) (A) (A)
                 (A) (A) (A) (A) (A) (A) (A) (A) (A) (A) (A) (A)
                 (A) (A) (A) (A) (A) (A) (A) (A) (A) (A) (A) (A)
                 (A) (A) (A) (A) (A) (A) (A) (A) (A) (A) (A) (A)
                 (A) (A) (A) (A) (A) (A) (A) (A) (A) (A) (A) (A)
                 (A) (A) (A) (A) (A) (A) (A) (A) (A) (A) (A) (A)
                 (A) (A) (A) (A) (A) (A) (A) (A) (A) (A) (A) (A)
 The electronic state of the initial guess is 1-A.
 Requested convergence on RMS density matrix=1.00D-08 within 128 cycles.
 Requested convergence on MAX density matrix=1.00D-06.
 Requested convergence on             energy=1.00D-06.
 No special actions if energy rises.
 Integral accuracy reduced to 1.0D-05 until final iterations.
 Initial convergence to 1.0D-05 achieved.  Increase integral accuracy.
 SCF Done:  E(RHF) =  -1295.62045864     A.U. after   14 cycles
             Convg  =    0.5871D-08             -V/T =  2.0012

 **********************************************************************

            Population analysis using the SCF density.

 **********************************************************************

 Orbital symmetries:
       Occupied  (A) (A) (A) (A) (A) (A) (A) (A) (A) (A) (A) (A)
                 (A) (A) (A) (A) (A) (A) (A) (A) (A) (A) (A) (A)
                 (A) (A) (A) (A) (A) (A) (A) (A) (A) (A) (A) (A)
                 (A) (A) (A) (A) (A) (A) (A) (A) (A) (A) (A) (A)
                 (A) (A) (A) (A) (A) (A) (A) (A) (A) (A) (A) (A)
                 (A) (A) (A) (A) (A) (A) (A) (A) (A) (A) (A) (A)
                 (A) (A) (A) (A) (A) (A) (A) (A) (A) (A) (A) (A)
                 (A) (A) (A) (A) (A) (A) (A) (A) (A) (A) (A) (A)
                 (A) (A) (A) (A) (A) (A) (A) (A) (A) (A) (A) (A)
       Virtual   (A) (A) (A) (A) (A) (A) (A) (A) (A) (A) (A) (A)
                 (A) (A) (A) (A) (A) (A) (A) (A) (A) (A) (A) (A)
                 (A) (A) (A) (A) (A) (A) (A) (A) (A) (A) (A) (A)
                 (A) (A) (A) (A) (A) (A) (A) (A) (A) (A) (A) (A)
                 (A) (A) (A) (A) (A) (A) (A) (A) (A) (A) (A) (A)
                 (A) (A) (A) (A) (A) (A) (A) (A) (A) (A) (A) (A)
                 (A) (A) (A) (A) (A) (A) (A) (A) (A) (A) (A) (A)
                 (A) (A) (A) (A) (A) (A) (A) (A) (A) (A) (A) (A)
                 (A) (A) (A) (A) (A) (A) (A) (A) (A) (A) (A) (A)
                 (A) (A) (A) (A) (A) (A) (A) (A) (A) (A) (A) (A)
                 (A) (A) (A) (A) (A) (A) (A) (A) (A) (A) (A) (A)
                 (A) (A) (A) (A) (A) (A) (A) (A) (A) (A) (A) (A)
                 (A) (A) (A) (A) (A) (A) (A) (A) (A) (A) (A) (A)
                 (A) (A) (A) (A) (A) (A) (A) (A) (A) (A) (A) (A)
                 (A) (A) (A) (A) (A) (A) (A) (A) (A) (A) (A) (A)
                 (A) (A) (A) (A) (A) (A) (A) (A) (A) (A) (A) (A)
                 (A) (A) (A) (A) (A) (A) (A) (A) (A) (A) (A) (A)
                 (A) (A) (A) (A) (A) (A) (A) (A) (A) (A) (A) (A)
                 (A) (A) (A) (A) (A) (A) (A) (A) (A) (A) (A) (A)
                 (A) (A) (A) (A) (A) (A) (A) (A) (A) (A) (A) (A)
                 (A) (A) (A) (A) (A) (A) (A) (A) (A) (A) (A) (A)
                 (A) (A) (A) (A) (A) (A) (A) (A) (A) (A) (A) (A)
                 (A) (A) (A) (A) (A) (A) (A) (A) (A) (A) (A) (A)
                 (A) (A) (A) (A) (A) (A) (A) (A) (A) (A) (A) (A)
                 (A) (A) (A) (A) (A) (A) (A) (A) (A) (A) (A) (A)
                 (A) (A) (A) (A) (A) (A) (A) (A) (A) (A) (A) (A)
                 (A) (A) (A) (A) (A) (A) (A) (A) (A) (A) (A) (A)
                 (A) (A) (A) (A) (A) (A) (A) (A) (A) (A) (A) (A)
                 (A) (A) (A) (A) (A) (A) (A) (A) (A) (A) (A) (A)
                 (A) (A) (A) (A) (A) (A) (A) (A) (A) (A) (A) (A)
                 (A) (A) (A) (A) (A) (A) (A) (A) (A) (A) (A) (A)
                 (A) (A) (A) (A) (A) (A) (A) (A) (A) (A) (A) (A)
 The electronic state is 1-A.
 Alpha  occ. eigenvalues --  -20.53760 -20.52006 -20.51719 -20.51533 -15.59696
 Alpha  occ. eigenvalues --  -15.57839 -15.57476 -15.57115 -11.36097 -11.34214
 Alpha  occ. eigenvalues --  -11.33810 -11.33620 -11.29054 -11.28512 -11.24916
 Alpha  occ. eigenvalues --  -11.24578 -11.24434 -11.23870 -11.23336 -11.22610
 Alpha  occ. eigenvalues --  -11.22483 -11.22481 -11.22286 -11.22132 -11.21927
 Alpha  occ. eigenvalues --  -11.21756 -11.21506 -11.21190  -1.40813  -1.39317
 Alpha  occ. eigenvalues --   -1.38553  -1.38039  -1.25447  -1.23501  -1.22551
 Alpha  occ. eigenvalues --   -1.21826  -1.10694  -1.09228  -1.07156  -1.04198
 Alpha  occ. eigenvalues --   -1.01225  -0.99366  -0.98710  -0.95332  -0.95075
 Alpha  occ. eigenvalues --   -0.94521  -0.92119  -0.87206  -0.85649  -0.82798
 Alpha  occ. eigenvalues --   -0.81375  -0.79449  -0.78856  -0.77014  -0.76819
 Alpha  occ. eigenvalues --   -0.71839  -0.71195  -0.70871  -0.69113  -0.67947
 Alpha  occ. eigenvalues --   -0.66621  -0.65685  -0.64501  -0.64045  -0.63672
 Alpha  occ. eigenvalues --   -0.62543  -0.62166  -0.61706  -0.61372  -0.61119
 Alpha  occ. eigenvalues --   -0.60911  -0.59674  -0.59302  -0.58710  -0.58480
 Alpha  occ. eigenvalues --   -0.58244  -0.57842  -0.56791  -0.56369  -0.56188
 Alpha  occ. eigenvalues --   -0.55462  -0.54804  -0.54694  -0.54330  -0.53808
 Alpha  occ. eigenvalues --   -0.53038  -0.52725  -0.52485  -0.52147  -0.51521
 Alpha  occ. eigenvalues --   -0.51325  -0.50260  -0.49729  -0.49165  -0.48510
 Alpha  occ. eigenvalues --   -0.48266  -0.46944  -0.46334  -0.44442  -0.42984
 Alpha  occ. eigenvalues --   -0.41589  -0.41450  -0.41020  -0.39551  -0.38784
 Alpha  occ. eigenvalues --   -0.38224  -0.37884  -0.34422
 Alpha virt. eigenvalues --    0.17407   0.18703   0.19705   0.20026   0.20374
 Alpha virt. eigenvalues --    0.21645   0.22026   0.23219   0.23389   0.24003
 Alpha virt. eigenvalues --    0.25288   0.25644   0.26571   0.27187   0.27654
 Alpha virt. eigenvalues --    0.27855   0.28211   0.28931   0.29196   0.29600
 Alpha virt. eigenvalues --    0.29675   0.30261   0.31192   0.31565   0.31815
 Alpha virt. eigenvalues --    0.32036   0.32395   0.32590   0.33448   0.33715
 Alpha virt. eigenvalues --    0.34000   0.34481   0.34768   0.34830   0.35439
 Alpha virt. eigenvalues --    0.35611   0.35835   0.36579   0.37076   0.37486
 Alpha virt. eigenvalues --    0.38308   0.38748   0.39306   0.39574   0.39966
 Alpha virt. eigenvalues --    0.40549   0.41388   0.42123   0.42691   0.43936
 Alpha virt. eigenvalues --    0.44811   0.45012   0.45640   0.45868   0.46703
 Alpha virt. eigenvalues --    0.47385   0.48663   0.49197   0.52275   0.53061
 Alpha virt. eigenvalues --    0.54082   0.54971   0.57805   0.58413   0.59780
 Alpha virt. eigenvalues --    0.62082   0.63783   0.64565   0.68969   0.70237
 Alpha virt. eigenvalues --    0.71296   0.71416   0.71705   0.72673   0.73243
 Alpha virt. eigenvalues --    0.73749   0.74521   0.75105   0.76060   0.76305
 Alpha virt. eigenvalues --    0.76637   0.77265   0.78168   0.78525   0.79090
 Alpha virt. eigenvalues --    0.79571   0.79998   0.80653   0.81359   0.82745
 Alpha virt. eigenvalues --    0.84062   0.84581   0.84876   0.85514   0.86595
 Alpha virt. eigenvalues --    0.87329   0.88235   0.88869   0.90028   0.90640
 Alpha virt. eigenvalues --    0.91551   0.92421   0.92711   0.92970   0.93401
 Alpha virt. eigenvalues --    0.94718   0.95495   0.96301   0.97082   0.97434
 Alpha virt. eigenvalues --    0.98354   0.98924   0.99939   1.00292   1.00496
 Alpha virt. eigenvalues --    1.01576   1.02124   1.02330   1.02810   1.03882
 Alpha virt. eigenvalues --    1.04032   1.04723   1.05601   1.06489   1.06905
 Alpha virt. eigenvalues --    1.07592   1.08264   1.08836   1.10471   1.11501
 Alpha virt. eigenvalues --    1.11903   1.12000   1.13148   1.13570   1.14328
 Alpha virt. eigenvalues --    1.14554   1.14875   1.15173   1.15375   1.15995
 Alpha virt. eigenvalues --    1.16267   1.16648   1.16863   1.17675   1.18184
 Alpha virt. eigenvalues --    1.18252   1.18509   1.19138   1.19206   1.19297
 Alpha virt. eigenvalues --    1.19439   1.19993   1.20399   1.21049   1.21492
 Alpha virt. eigenvalues --    1.21869   1.22237   1.22397   1.22500   1.22969
 Alpha virt. eigenvalues --    1.23273   1.23674   1.24161   1.25313   1.25882
 Alpha virt. eigenvalues --    1.26317   1.27233   1.27564   1.28429   1.28946
 Alpha virt. eigenvalues --    1.29719   1.30358   1.31210   1.32018   1.33208
 Alpha virt. eigenvalues --    1.34221   1.34617   1.35704   1.35926   1.36706
 Alpha virt. eigenvalues --    1.37682   1.38883   1.41584   1.42267   1.42714
 Alpha virt. eigenvalues --    1.44064   1.45841   1.47431   1.48098   1.48410
 Alpha virt. eigenvalues --    1.50529   1.51414   1.54361   1.54476   1.55545
 Alpha virt. eigenvalues --    1.58437   1.58907   1.59667   1.60515   1.61567
 Alpha virt. eigenvalues --    1.62532   1.63863   1.65518   1.67013   1.68873
 Alpha virt. eigenvalues --    1.69655   1.71063   1.71521   1.72293   1.73235
 Alpha virt. eigenvalues --    1.73825   1.74696   1.78304   1.79283   1.79875
 Alpha virt. eigenvalues --    1.80724   1.81628   1.83039   1.87266   1.88010
 Alpha virt. eigenvalues --    1.89689   1.90697   1.91506   1.93226   1.94766
 Alpha virt. eigenvalues --    1.96019   1.96186   1.98578   1.99965   2.01952
 Alpha virt. eigenvalues --    2.04554   2.05698   2.06832   2.07345   2.08037
 Alpha virt. eigenvalues --    2.08856   2.10527   2.11364   2.12284   2.12564
 Alpha virt. eigenvalues --    2.12873   2.14189   2.14459   2.15708   2.15837
 Alpha virt. eigenvalues --    2.16351   2.17974   2.18240   2.19266   2.19316
 Alpha virt. eigenvalues --    2.20496   2.21134   2.21658   2.23148   2.23748
 Alpha virt. eigenvalues --    2.24805   2.25782   2.26037   2.26630   2.27318
 Alpha virt. eigenvalues --    2.28350   2.29387   2.29584   2.31008   2.31623
 Alpha virt. eigenvalues --    2.32894   2.34124   2.34687   2.35810   2.36407
 Alpha virt. eigenvalues --    2.37041   2.37322   2.37986   2.38495   2.39391
 Alpha virt. eigenvalues --    2.39801   2.41930   2.43064   2.43585   2.45047
 Alpha virt. eigenvalues --    2.45732   2.46093   2.47795   2.49272   2.50004
 Alpha virt. eigenvalues --    2.52049   2.52373   2.53485   2.54982   2.55865
 Alpha virt. eigenvalues --    2.56819   2.57223   2.57652   2.59368   2.60619
 Alpha virt. eigenvalues --    2.62700   2.63348   2.64177   2.64717   2.65222
 Alpha virt. eigenvalues --    2.66099   2.68701   2.70174   2.70842   2.71244
 Alpha virt. eigenvalues --    2.72216   2.73363   2.74358   2.75160   2.76367
 Alpha virt. eigenvalues --    2.76768   2.77934   2.79249   2.79462   2.79744
 Alpha virt. eigenvalues --    2.81652   2.82692   2.83950   2.85083   2.86407
 Alpha virt. eigenvalues --    2.87782   2.88575   2.90986   2.91959   2.95883
 Alpha virt. eigenvalues --    2.97154   2.97843   2.98529   2.98909   3.02260
 Alpha virt. eigenvalues --    3.03480   3.04669   3.05553   3.06507   3.06657
 Alpha virt. eigenvalues --    3.10811   3.11107   3.13096   3.13861   3.15767
 Alpha virt. eigenvalues --    3.17704   3.18691   3.22287   3.30211   3.30669
 Alpha virt. eigenvalues --    3.34393   3.34453   3.38106   3.40564   3.41371
 Alpha virt. eigenvalues --    3.42765   3.43159   3.53969   3.55776   3.57643
 Alpha virt. eigenvalues --    3.60351   4.38498   4.40464   4.43305   4.48855
 Alpha virt. eigenvalues --    4.49254   4.51944   4.55503   4.57697   4.61182
 Alpha virt. eigenvalues --    4.63104   4.66147   4.67375   4.70102   4.70822
 Alpha virt. eigenvalues --    4.72092   4.77044   4.79038   4.82955   4.83967
 Alpha virt. eigenvalues --    4.88561   4.89461   4.93830   4.95381   4.99051
 Alpha virt. eigenvalues --    5.02309   5.11577   5.22146   5.23645
          Condensed to atoms (all electrons):
 Mulliken atomic charges:
              1
     1  C   -0.278714
     2  N   -0.774872
     3  C    0.821574
     4  O   -0.631821
     5  C    0.093732
     6  C   -0.463227
     7  C   -0.324500
     8  C   -0.312806
     9  C   -0.373678
    10  C   -0.178934
    11  C   -0.177351
    12  C   -0.353319
    13  C   -0.310502
    14  C   -0.329062
    15  C    0.091012
    16  C   -0.509600
    17  N   -0.787621
    18  C    0.767322
    19  C   -0.595680
    20  O   -0.613902
    21  C    0.820638
    22  O   -0.639401
    23  N   -0.805886
    24  C   -0.275590
    25  N   -0.835323
    26  C    0.737855
    27  C   -0.588238
    28  O   -0.592771
    29  H    0.188412
    30  H    0.195904
    31  H    0.160632
    32  H    0.390262
    33  H    0.201227
    34  H    0.144077
    35  H    0.200233
    36  H    0.157283
    37  H    0.185192
    38  H    0.164101
    39  H    0.178090
    40  H    0.213962
    41  H    0.174695
    42  H    0.181412
    43  H    0.169544
    44  H    0.176649
    45  H    0.159941
    46  H    0.150791
    47  H    0.199585
    48  H    0.173003
    49  H    0.185269
    50  H    0.183404
    51  H    0.148461
    52  H    0.226526
    53  H    0.389765
    54  H    0.211083
    55  H    0.209471
    56  H    0.176212
    57  H    0.395260
    58  H    0.164912
    59  H    0.199923
    60  H    0.184812
    61  H    0.381936
    62  H    0.218143
    63  H    0.178290
    64  H    0.202202
 Sum of Mulliken atomic charges =   0.00000
 Mulliken charges with hydrogens summed into heavy atoms:
              1
     1  C    0.266234
     2  N   -0.384610
     3  C    0.821574
     4  O   -0.631821
     5  C    0.093732
     6  C    0.082310
     7  C    0.017975
     8  C    0.029384
     9  C    0.014978
    10  C    0.002478
    11  C   -0.007807
    12  C   -0.016729
    13  C    0.039874
    14  C    0.029210
    15  C    0.091012
    16  C    0.048792
    17  N   -0.397856
    18  C    0.767322
    19  C    0.001086
    20  O   -0.613902
    21  C    0.820638
    22  O   -0.639401
    23  N   -0.410625
    24  C    0.274057
    25  N   -0.453387
    26  C    0.737855
    27  C    0.010398
    28  O   -0.592771
 Sum of Mulliken charges with hydrogens summed into heavy atoms =   0.00000
 Electronic spatial extent (au):  <R**2>=          22012.0653
 Charge=              0.0000 electrons
 Dipole moment (field-independent basis, Debye):
    X=             -3.2757    Y=             -4.6112    Z=              6.1010  Tot=              8.3196
 Quadrupole moment (field-independent basis, Debye-Ang):
   XX=           -188.3498   YY=           -156.2644   ZZ=           -173.9978
   XY=             14.9249   XZ=            -15.5796   YZ=              9.2870
 Traceless Quadrupole moment (field-independent basis, Debye-Ang):
   XX=            -15.4791   YY=             16.6062   ZZ=             -1.1271
   XY=             14.9249   XZ=            -15.5796   YZ=              9.2870
 Octapole moment (field-independent basis, Debye-Ang**2):
  XXX=           -343.9187  YYY=             47.3802  ZZZ=             16.8932  XYY=             62.0176
  XXY=           -242.1860  XXZ=            148.8587  XZZ=             -9.8964  YZZ=              0.4186
  YYZ=              3.7995  XYZ=              2.6809
 Hexadecapole moment (field-independent basis, Debye-Ang**3):
 XXXX=         -26472.6072 YYYY=          -2291.0415 ZZZZ=          -1314.6169 XXXY=            337.2970
 XXXZ=           -931.9686 YYYX=             96.0284 YYYZ=             -1.8985 ZZZX=            -60.1020
 ZZZY=             20.4940 XXYY=          -4262.8998 XXZZ=          -4336.4473 YYZZ=           -617.1913
 XXYZ=            193.0432 YYXZ=            -75.9997 ZZXY=             25.6604
 N-N= 2.687824284558D+03 E-N=-8.407802076187D+03  KE= 1.294024426973D+03
 1\1\GINC-MOSURA\SP\RHF\6-31G(d)\C20H36N4O4\MARIE\05-Dec-2019\0\\#SP HF
 /6-31G* Geom=(ModRedundant)\\paramfit run\\0,1\C,0,0.,0.,0.\N,0,1.4481
 87,0.,0.\C,0,2.1232,0.47592,1.072365\O,0,1.590179,0.696732,2.124447\C,
 0,3.650505,0.594143,0.921539\C,0,4.198902,1.549248,1.986845\C,0,4.3077
 51,-0.809116,1.023981\C,0,4.133566,-1.622781,2.319066\C,0,2.832729,-2.
 433298,2.484965\C,0,2.579342,-3.423586,1.372579\C,0,2.834093,-4.721989
 ,1.375535\C,0,3.442731,-5.535663,2.492337\C,0,2.42774,-6.370218,3.2941
 33\C,0,1.693892,-7.402618,2.427801\C,0,0.774274,-8.428536,3.139447\C,0
 ,0.118887,-9.296969,2.053288\N,0,1.59533,-9.267679,4.001559\C,0,1.0367
 79,-10.167772,4.862321\C,0,1.96438,-10.678762,5.940862\O,0,-0.103289,-
 10.530888,4.775526\C,0,-0.228361,-7.657085,4.027316\O,0,0.090004,-7.29
 6707,5.128542\N,0,-1.416619,-7.323616,3.478843\C,0,-2.421442,-6.64525,
 4.271531\N,0,3.997412,1.070275,-0.425452\C,0,3.432198,2.165,-1.010072\
 C,0,4.163441,2.693777,-2.226541\O,0,2.423883,2.667738,-0.601788\H,0,-0
 .403259,1.006147,0.\H,0,-0.36496,-0.516002,0.875939\H,0,-0.345658,-0.5
 22086,-0.883346\H,0,1.904244,0.070913,-0.879357\H,0,3.932135,1.22176,2
 .980082\H,0,5.28092,1.595925,1.9075\H,0,3.792711,2.540594,1.848395\H,0
 ,5.374584,-0.64325,0.891407\H,0,3.984642,-1.403324,0.174983\H,0,4.9615
 65,-2.324757,2.354635\H,0,4.250121,-0.975721,3.182259\H,0,1.985724,-1.
 764045,2.562723\H,0,2.895638,-2.94811,3.437249\H,0,2.135502,-3.009181,
 0.481856\H,0,2.579482,-5.276386,0.485828\H,0,3.971519,-4.889909,3.1828
 81\H,0,4.191817,-6.202016,2.066382\H,0,2.965623,-6.85691,4.102952\H,0,
 1.714584,-5.707921,3.766998\H,0,2.42081,-7.979938,1.860503\H,0,1.08316
 7,-6.875737,1.704087\H,0,0.891187,-9.872528,1.556434\H,0,-0.36551,-8.6
 84705,1.299714\H,0,-0.597925,-9.98679,2.472891\H,0,2.435807,-8.84784,4
 .327205\H,0,1.585188,-11.616367,6.31792\H,0,1.981002,-9.957975,6.75284
 4\H,0,2.97817,-10.810647,5.57862\H,0,-1.730263,-7.831365,2.685667\H,0,
 -3.24021,-6.362494,3.623002\H,0,-1.998054,-5.755067,4.713054\H,0,-2.79
 9425,-7.276973,5.068907\H,0,4.901184,0.810695,-0.753114\H,0,3.473668,3
 .270743,-2.825119\H,0,4.591163,1.898307,-2.826401\H,0,4.968733,3.34527
 2,-1.902719\\Version=EM64L-G09RevA.02\State=1-A\HF=-1295.6204586\RMSD=
 5.871e-09\Dipole=2.109483,-0.1318027,-2.4993012\Quadrupole=15.9353785,
 -22.1428968,6.2075183,5.9783632,2.2051164,-3.970677\PG=C01 [X(C20H36N4
 O4)]\\@


 IN-LAWS ARE LIKE SEEDS. YOU DON'T NEED THEM
 BUT THEY COME WITH THE TOMATO.
 Job cpu time:  0 days  0 hours  5 minutes 23.0 seconds.
 File lengths (MBytes):  RWF=    132 Int=      0 D2E=      0 Chk=     10 Scr=      1
 Normal termination of Gaussian 09 at Thu Dec  5 17:02:05 2019.
