 Entering Gaussian System, Link 0=g09
 Input=PHI_-180.gau
 Output=PHI_-180.log
 Initial command:
 /home/marie/Utilities//g09/l1.exe /tmp/g09/Gau-2144.inp -scrdir=/tmp/g09/
 Entering Link 1 = /home/marie/Utilities//g09/l1.exe PID=      2162.
  
 Copyright (c) 1988,1990,1992,1993,1995,1998,2003,2009, Gaussian, Inc.
                  All Rights Reserved.
  
 This is part of the Gaussian(R) 09 program.  It is based on
 the Gaussian(R) 03 system (copyright 2003, Gaussian, Inc.),
 the Gaussian(R) 98 system (copyright 1998, Gaussian, Inc.),
 the Gaussian(R) 94 system (copyright 1995, Gaussian, Inc.),
 the Gaussian 92(TM) system (copyright 1992, Gaussian, Inc.),
 the Gaussian 90(TM) system (copyright 1990, Gaussian, Inc.),
 the Gaussian 88(TM) system (copyright 1988, Gaussian, Inc.),
 the Gaussian 86(TM) system (copyright 1986, Carnegie Mellon
 University), and the Gaussian 82(TM) system (copyright 1983,
 Carnegie Mellon University). Gaussian is a federally registered
 trademark of Gaussian, Inc.
  
 This software contains proprietary and confidential information,
 including trade secrets, belonging to Gaussian, Inc.
  
 This software is provided under written license and may be
 used, copied, transmitted, or stored only in accord with that
 written license.
  
 The following legend is applicable only to US Government
 contracts under FAR:
  
                    RESTRICTED RIGHTS LEGEND
  
 Use, reproduction and disclosure by the US Government is
 subject to restrictions as set forth in subparagraphs (a)
 and (c) of the Commercial Computer Software - Restricted
 Rights clause in FAR 52.227-19.
  
 Gaussian, Inc.
 340 Quinnipiac St., Bldg. 40, Wallingford CT 06492
  
  
 ---------------------------------------------------------------
 Warning -- This program may not be used in any manner that
 competes with the business of Gaussian, Inc. or will provide
 assistance to any competitor of Gaussian, Inc.  The licensee
 of this program is prohibited from giving any competitor of
 Gaussian, Inc. access to this program.  By using this program,
 the user acknowledges that Gaussian, Inc. is engaged in the
 business of creating and licensing software in the field of
 computational chemistry and represents and warrants to the
 licensee that it is not a competitor of Gaussian, Inc. and that
 it will not use this program in any manner prohibited above.
 ---------------------------------------------------------------
  

 Cite this work as:
 Gaussian 09, Revision A.02,
 M. J. Frisch, G. W. Trucks, H. B. Schlegel, G. E. Scuseria, 
 M. A. Robb, J. R. Cheeseman, G. Scalmani, V. Barone, B. Mennucci, 
 G. A. Petersson, H. Nakatsuji, M. Caricato, X. Li, H. P. Hratchian, 
 A. F. Izmaylov, J. Bloino, G. Zheng, J. L. Sonnenberg, M. Hada, 
 M. Ehara, K. Toyota, R. Fukuda, J. Hasegawa, M. Ishida, T. Nakajima, 
 Y. Honda, O. Kitao, H. Nakai, T. Vreven, J. A. Montgomery, Jr., 
 J. E. Peralta, F. Ogliaro, M. Bearpark, J. J. Heyd, E. Brothers, 
 K. N. Kudin, V. N. Staroverov, R. Kobayashi, J. Normand, 
 K. Raghavachari, A. Rendell, J. C. Burant, S. S. Iyengar, J. Tomasi, 
 M. Cossi, N. Rega, J. M. Millam, M. Klene, J. E. Knox, J. B. Cross, 
 V. Bakken, C. Adamo, J. Jaramillo, R. Gomperts, R. E. Stratmann, 
 O. Yazyev, A. J. Austin, R. Cammi, C. Pomelli, J. W. Ochterski, 
 R. L. Martin, K. Morokuma, V. G. Zakrzewski, G. A. Voth, 
 P. Salvador, J. J. Dannenberg, S. Dapprich, A. D. Daniels, 
 O. Farkas, J. B. Foresman, J. V. Ortiz, J. Cioslowski, 
 and D. J. Fox, Gaussian, Inc., Wallingford CT, 2009.
 
 ******************************************
 Gaussian 09:  EM64L-G09RevA.02 11-Jun-2009
                 5-Dec-2019 
 ******************************************
 %chk=PHI_-180
 %NoSave
 ---------------------------------
 #SP HF/6-31G* Geom=(ModRedundant)
 ---------------------------------
 1/18=120,38=1/1;
 2/12=2,17=6,18=5,40=1/2;
 3/5=1,6=6,7=1,11=9,16=1,25=1,30=1/1,2,3;
 4//1;
 5/5=2,38=5/2;
 6/7=2,8=2,9=2,10=2,28=1/1;
 99/5=1,9=1/99;
 ------------
 paramfit run
 ------------
 Symbolic Z-matrix:
 Charge =  0 Multiplicity = 1
 C-CT--0.3208          0.        0.        0. 
 N-N--0.5622           1.44819   0.        0. 
 C-C-0.8053            2.1232    0.47592   1.07237 
 O-O--0.6151           1.59018   0.69673   2.12445 
 C-CX-0.0839           3.65051   0.59414   0.92154 
 C-CU--0.3230          4.1989    1.54925   1.98685 
 C-CU--0.0657          4.30775  -0.80912   1.02398 
 C-CU--0.0109          4.13357  -1.62278   2.31907 
 C-CU-0.0816           2.83273  -2.4333    2.48497 
 C-CM--0.2354          2.57934  -3.42359   1.37258 
 C-CM--0.2653          2.83409  -4.72199   1.37554 
 C-CU-0.1214           3.44273  -5.53566   2.49234 
 C-CU--0.0354          2.42774  -6.37022   3.29413 
 C-CU--0.0984          1.69389  -7.40262   2.4278 
 C-CU-0.1300           0.77427  -8.42854   3.13945 
 C-CU--0.3561          0.11889  -9.29697   2.05329 
 N-N--0.7186           1.59533  -9.26768   4.00156 
 C-C-0.8537            1.03678  -10.16777   4.86232 
 C-CT--0.3868          1.96438  -10.67876   5.94086 
 O-O--0.6323          -0.10329  -10.53089   4.77553 
 C-C-0.7903           -0.22836  -7.65709   4.02732 
 O-O--0.6136           0.09     -7.29671   5.12854 
 N-N--0.5650          -1.41662  -7.32362   3.47884 
 C-CT--0.3231         -2.42144  -6.64525   4.27153 
 N-N--0.7191           3.99741   1.07028  -0.42545 
 C-C-0.8539            5.27739   1.27162  -0.85065 
 C-CT--0.3903          5.44199   1.41426  -2.34954 
 O-O--0.6290           6.20554   1.34338  -0.09598 
 H-H1-0.1459          -0.40326   1.00615   0. 
 H-H1-0.1459          -0.36496  -0.516     0.87594 
 H-H1-0.1459          -0.34566  -0.52209  -0.88335 
 H-H-0.3572            1.90424   0.07091  -0.87936 
 H-HC-0.0997           3.93214   1.22176   2.98008 
 H-HC-0.0997           5.28092   1.59593   1.9075 
 H-HC-0.0997           3.79271   2.54059   1.8484 
 H-HC-0.0347           5.37458  -0.64325   0.89141 
 H-HC-0.0347           3.98464  -1.40332   0.17498 
 H-HC-0.0243           4.96157  -2.32476   2.35464 
 H-HC-0.0243           4.25012  -0.97572   3.18226 
 H-HC-0.0171           1.98572  -1.76405   2.56272 
 H-HC-0.0171           2.89564  -2.94811   3.43725 
 H-HA-0.1313           2.1355   -3.00918   0.48186 
 H-HA-0.1359           2.57948  -5.27639   0.48583 
 H-HC-0.0092           3.97152  -4.88991   3.18288 
 H-HC-0.0092           4.19182  -6.20202   2.06638 
 H-HC-0.0318           2.96562  -6.85691   4.10295 
 H-HC-0.0318           1.71458  -5.70792   3.767 
 H-HC-0.0435           2.42081  -7.97994   1.8605 
 H-HC-0.0435           1.08317  -6.87574   1.70409 
 H-HC-0.1066           0.89119  -9.87253   1.55643 
 H-HC-0.1066          -0.36551  -8.68471   1.29971 
 H-HC-0.1066          -0.59793  -9.98679   2.47289 
 H-H-0.3529            2.43581  -8.84784   4.32721 
 H-HC-0.1047           1.58519  -11.61637   6.31792 
 H-HC-0.1047           1.981    -9.95798   6.75284 
 H-HC-0.1047           2.97817  -10.81065   5.57862 
 H-H-0.3615           -1.73026  -7.83136   2.68567 
 H-H1-0.1469          -3.24021  -6.36249   3.623 
 H-H1-0.1469          -1.99805  -5.75507   4.71305 
 H-H1-0.1469          -2.79943  -7.27697   5.06891 
 H-H-0.3570            3.31945   0.89049  -1.13227 
 H-HC-0.1060           6.36374   1.94032  -2.55108 
 H-HC-0.1060           4.61223   1.94285  -2.80523 
 H-HC-0.1060           5.50239   0.42726  -2.79673 
 
 The following ModRedundant input section has been read:
 D    *    5   25    * F                                                       
 Stoichiometry    C20H36N4O4
 Framework group  C1[X(C20H36N4O4)]
 Deg. of freedom   186
 Full point group                 C1      NOp   1
 Largest Abelian subgroup         C1      NOp   1
 Largest concise Abelian subgroup C1      NOp   1
                         Standard orientation:                         
 ---------------------------------------------------------------------
 Center     Atomic      Atomic             Coordinates (Angstroms)
 Number     Number       Type             X           Y           Z
 ---------------------------------------------------------------------
      1          6    20001001       -3.608132    3.325622    0.905368
      2          7    20001014       -4.062087    1.961771    0.729066
      3          6    20001002       -4.299607    1.484925   -0.515245
      4          8    20001024       -3.942203    2.059998   -1.505851
      5          6    90000001       -4.937044    0.086485   -0.601421
      6          6    90000002       -5.557549   -0.109974   -1.988584
      7          6    90000002       -3.875461   -1.004476   -0.294097
      8          6    90000002       -2.634950   -1.115475   -1.198778
      9          6    90000002       -1.456075   -0.163131   -0.916060
     10          6    20001004       -0.914380   -0.256280    0.491124
     11          6    20001004        0.145142   -0.932816    0.904004
     12          6    90000002        1.075218   -1.780857    0.070015
     13          6    90000002        2.417605   -1.106496   -0.265846
     14          6    90000002        3.236611   -0.761597    0.985229
     15          6    90000002        4.683972   -0.241306    0.787519
     16          6    90000002        5.254420    0.085081    2.177307
     17          7    20001014        5.476855   -1.297678    0.173560
     18          6    20001002        6.755137   -1.075280   -0.250223
     19          6    20001001        7.305908   -2.121882   -1.191542
     20          8    20001024        7.399176   -0.123615    0.094289
     21          6    20001002        4.645921    0.961378   -0.182443
     22          8    20001024        4.632023    0.781525   -1.370461
     23          7    20001014        4.525910    2.193178    0.358156
     24          6    20001001        4.535421    3.366726   -0.490901
     25          7    20001014       -5.954726   -0.078625    0.446669
     26          6    20001002       -6.687622   -1.215887    0.617463
     27          6    20001001       -7.411222   -1.321280    1.943892
     28          8    20001024       -6.766100   -2.066690   -0.222845
     29          1    20001035       -4.363805    4.043736    0.608350
     30          1    20001035       -2.721725    3.494845    0.311761
     31          1    20001035       -3.364405    3.476561    1.949479
     32          1    20001029       -4.588091    1.557088    1.467874
     33          1    20001034       -4.824388    0.030037   -2.768202
     34          1    20001034       -5.966597   -1.113196   -2.062491
     35          1    20001034       -6.349848    0.606077   -2.151250
     36          1    20001034       -4.403665   -1.953258   -0.357598
     37          1    20001034       -3.563041   -0.899063    0.740099
     38          1    20001034       -2.266103   -2.131349   -1.091218
     39          1    20001034       -2.923778   -1.008606   -2.239226
     40          1    20001034       -1.748923    0.859514   -1.115562
     41          1    20001034       -0.676974   -0.396543   -1.633246
     42          1    20001033       -1.463583    0.302047    1.231908
     43          1    20001033        0.386334   -0.878480    1.954068
     44          1    20001034        0.595315   -2.062462   -0.859424
     45          1    20001034        1.269162   -2.709926    0.604628
     46          1    20001034        2.970815   -1.777608   -0.916955
     47          1    20001034        2.233072   -0.212681   -0.847113
     48          1    20001034        3.307872   -1.639694    1.623510
     49          1    20001034        2.702056   -0.008465    1.552144
     50          1    20001034        5.335617   -0.835240    2.743871
     51          1    20001034        4.594515    0.747987    2.727273
     52          1    20001034        6.236988    0.527718    2.111197
     53          1    20001029        4.964154   -1.948388   -0.376374
     54          1    20001034        8.384350   -2.080479   -1.173905
     55          1    20001034        6.965082   -1.896050   -2.197506
     56          1    20001034        6.971561   -3.120583   -0.932328
     57          1    20001029        4.779935    2.318689    1.309486
     58          1    20001035        4.307537    4.233611    0.115319
     59          1    20001035        3.783400    3.266852   -1.259741
     60          1    20001035        5.498694    3.509387   -0.969969
     61          1    20001029       -5.842512    0.500177    1.249130
     62          1    20001034       -8.234885   -2.012233    1.838361
     63          1    20001034       -7.780809   -0.361594    2.287344
     64          1    20001034       -6.728040   -1.709573    2.692418
 ---------------------------------------------------------------------
 Rotational constants (GHZ):      0.3650458      0.0509363      0.0483682
 Standard basis: 6-31G(d) (6D, 7F)
 There are   492 symmetry adapted basis functions of A   symmetry.
 Integral buffers will be    131072 words long.
 Raffenetti 1 integral format.
 Two-electron integral symmetry is turned on.
   492 basis functions,   928 primitive gaussians,   492 cartesian basis functions
   108 alpha electrons      108 beta electrons
       nuclear repulsion energy      2681.4529209236 Hartrees.
 NAtoms=   64 NActive=   64 NUniq=   64 SFac= 7.50D-01 NAtFMM=   80 NAOKFM=F Big=T
 One-electron integrals computed using PRISM.
 NBasis=   492 RedAO= T  NBF=   492
 NBsUse=   492 1.00D-06 NBFU=   492
 Harris functional with IExCor=  205 diagonalized for initial guess.
 ExpMin= 1.61D-01 ExpMax= 5.48D+03 ExpMxC= 8.25D+02 IAcc=1 IRadAn=         1 AccDes= 0.00D+00
 HarFok:  IExCor=  205 AccDes= 0.00D+00 IRadAn=         1 IDoV= 1
 ScaDFX=  1.000000  1.000000  1.000000  1.000000
 FoFCou: FMM=F IPFlag=           0 FMFlag=      100000 FMFlg1=           1
         NFxFlg=           0 DoJE=T BraDBF=F KetDBF=T FulRan=T
         Omega=  0.000000  0.000000  1.000000  0.000000  0.000000 ICntrl=     500 IOpCl=  0
         NMat0=    1 NMatS0=    1 NMatT0=    0 NMatD0=    1 NMtDS0=    0 NMtDT0=    0
         I1Cent=           4 NGrid=           0.
 Petite list used in FoFCou.
 Initial guess orbital symmetries:
       Occupied  (A) (A) (A) (A) (A) (A) (A) (A) (A) (A) (A) (A)
                 (A) (A) (A) (A) (A) (A) (A) (A) (A) (A) (A) (A)
                 (A) (A) (A) (A) (A) (A) (A) (A) (A) (A) (A) (A)
                 (A) (A) (A) (A) (A) (A) (A) (A) (A) (A) (A) (A)
                 (A) (A) (A) (A) (A) (A) (A) (A) (A) (A) (A) (A)
                 (A) (A) (A) (A) (A) (A) (A) (A) (A) (A) (A) (A)
                 (A) (A) (A) (A) (A) (A) (A) (A) (A) (A) (A) (A)
                 (A) (A) (A) (A) (A) (A) (A) (A) (A) (A) (A) (A)
                 (A) (A) (A) (A) (A) (A) (A) (A) (A) (A) (A) (A)
       Virtual   (A) (A) (A) (A) (A) (A) (A) (A) (A) (A) (A) (A)
                 (A) (A) (A) (A) (A) (A) (A) (A) (A) (A) (A) (A)
                 (A) (A) (A) (A) (A) (A) (A) (A) (A) (A) (A) (A)
                 (A) (A) (A) (A) (A) (A) (A) (A) (A) (A) (A) (A)
                 (A) (A) (A) (A) (A) (A) (A) (A) (A) (A) (A) (A)
                 (A) (A) (A) (A) (A) (A) (A) (A) (A) (A) (A) (A)
                 (A) (A) (A) (A) (A) (A) (A) (A) (A) (A) (A) (A)
                 (A) (A) (A) (A) (A) (A) (A) (A) (A) (A) (A) (A)
                 (A) (A) (A) (A) (A) (A) (A) (A) (A) (A) (A) (A)
                 (A) (A) (A) (A) (A) (A) (A) (A) (A) (A) (A) (A)
                 (A) (A) (A) (A) (A) (A) (A) (A) (A) (A) (A) (A)
                 (A) (A) (A) (A) (A) (A) (A) (A) (A) (A) (A) (A)
                 (A) (A) (A) (A) (A) (A) (A) (A) (A) (A) (A) (A)
                 (A) (A) (A) (A) (A) (A) (A) (A) (A) (A) (A) (A)
                 (A) (A) (A) (A) (A) (A) (A) (A) (A) (A) (A) (A)
                 (A) (A) (A) (A) (A) (A) (A) (A) (A) (A) (A) (A)
                 (A) (A) (A) (A) (A) (A) (A) (A) (A) (A) (A) (A)
                 (A) (A) (A) (A) (A) (A) (A) (A) (A) (A) (A) (A)
                 (A) (A) (A) (A) (A) (A) (A) (A) (A) (A) (A) (A)
                 (A) (A) (A) (A) (A) (A) (A) (A) (A) (A) (A) (A)
                 (A) (A) (A) (A) (A) (A) (A) (A) (A) (A) (A) (A)
                 (A) (A) (A) (A) (A) (A) (A) (A) (A) (A) (A) (A)
                 (A) (A) (A) (A) (A) (A) (A) (A) (A) (A) (A) (A)
                 (A) (A) (A) (A) (A) (A) (A) (A) (A) (A) (A) (A)
                 (A) (A) (A) (A) (A) (A) (A) (A) (A) (A) (A) (A)
                 (A) (A) (A) (A) (A) (A) (A) (A) (A) (A) (A) (A)
                 (A) (A) (A) (A) (A) (A) (A) (A) (A) (A) (A) (A)
                 (A) (A) (A) (A) (A) (A) (A) (A) (A) (A) (A) (A)
                 (A) (A) (A) (A) (A) (A) (A) (A) (A) (A) (A) (A)
                 (A) (A) (A) (A) (A) (A) (A) (A) (A) (A) (A) (A)
                 (A) (A) (A) (A) (A) (A) (A) (A) (A) (A) (A) (A)
                 (A) (A) (A) (A) (A) (A) (A) (A) (A) (A) (A) (A)
 The electronic state of the initial guess is 1-A.
 Requested convergence on RMS density matrix=1.00D-08 within 128 cycles.
 Requested convergence on MAX density matrix=1.00D-06.
 Requested convergence on             energy=1.00D-06.
 No special actions if energy rises.
 Integral accuracy reduced to 1.0D-05 until final iterations.
 Initial convergence to 1.0D-05 achieved.  Increase integral accuracy.
 SCF Done:  E(RHF) =  -1295.60336994     A.U. after   14 cycles
             Convg  =    0.6850D-08             -V/T =  2.0012

 **********************************************************************

            Population analysis using the SCF density.

 **********************************************************************

 Orbital symmetries:
       Occupied  (A) (A) (A) (A) (A) (A) (A) (A) (A) (A) (A) (A)
                 (A) (A) (A) (A) (A) (A) (A) (A) (A) (A) (A) (A)
                 (A) (A) (A) (A) (A) (A) (A) (A) (A) (A) (A) (A)
                 (A) (A) (A) (A) (A) (A) (A) (A) (A) (A) (A) (A)
                 (A) (A) (A) (A) (A) (A) (A) (A) (A) (A) (A) (A)
                 (A) (A) (A) (A) (A) (A) (A) (A) (A) (A) (A) (A)
                 (A) (A) (A) (A) (A) (A) (A) (A) (A) (A) (A) (A)
                 (A) (A) (A) (A) (A) (A) (A) (A) (A) (A) (A) (A)
                 (A) (A) (A) (A) (A) (A) (A) (A) (A) (A) (A) (A)
       Virtual   (A) (A) (A) (A) (A) (A) (A) (A) (A) (A) (A) (A)
                 (A) (A) (A) (A) (A) (A) (A) (A) (A) (A) (A) (A)
                 (A) (A) (A) (A) (A) (A) (A) (A) (A) (A) (A) (A)
                 (A) (A) (A) (A) (A) (A) (A) (A) (A) (A) (A) (A)
                 (A) (A) (A) (A) (A) (A) (A) (A) (A) (A) (A) (A)
                 (A) (A) (A) (A) (A) (A) (A) (A) (A) (A) (A) (A)
                 (A) (A) (A) (A) (A) (A) (A) (A) (A) (A) (A) (A)
                 (A) (A) (A) (A) (A) (A) (A) (A) (A) (A) (A) (A)
                 (A) (A) (A) (A) (A) (A) (A) (A) (A) (A) (A) (A)
                 (A) (A) (A) (A) (A) (A) (A) (A) (A) (A) (A) (A)
                 (A) (A) (A) (A) (A) (A) (A) (A) (A) (A) (A) (A)
                 (A) (A) (A) (A) (A) (A) (A) (A) (A) (A) (A) (A)
                 (A) (A) (A) (A) (A) (A) (A) (A) (A) (A) (A) (A)
                 (A) (A) (A) (A) (A) (A) (A) (A) (A) (A) (A) (A)
                 (A) (A) (A) (A) (A) (A) (A) (A) (A) (A) (A) (A)
                 (A) (A) (A) (A) (A) (A) (A) (A) (A) (A) (A) (A)
                 (A) (A) (A) (A) (A) (A) (A) (A) (A) (A) (A) (A)
                 (A) (A) (A) (A) (A) (A) (A) (A) (A) (A) (A) (A)
                 (A) (A) (A) (A) (A) (A) (A) (A) (A) (A) (A) (A)
                 (A) (A) (A) (A) (A) (A) (A) (A) (A) (A) (A) (A)
                 (A) (A) (A) (A) (A) (A) (A) (A) (A) (A) (A) (A)
                 (A) (A) (A) (A) (A) (A) (A) (A) (A) (A) (A) (A)
                 (A) (A) (A) (A) (A) (A) (A) (A) (A) (A) (A) (A)
                 (A) (A) (A) (A) (A) (A) (A) (A) (A) (A) (A) (A)
                 (A) (A) (A) (A) (A) (A) (A) (A) (A) (A) (A) (A)
                 (A) (A) (A) (A) (A) (A) (A) (A) (A) (A) (A) (A)
                 (A) (A) (A) (A) (A) (A) (A) (A) (A) (A) (A) (A)
                 (A) (A) (A) (A) (A) (A) (A) (A) (A) (A) (A) (A)
                 (A) (A) (A) (A) (A) (A) (A) (A) (A) (A) (A) (A)
                 (A) (A) (A) (A) (A) (A) (A) (A) (A) (A) (A) (A)
                 (A) (A) (A) (A) (A) (A) (A) (A) (A) (A) (A) (A)
                 (A) (A) (A) (A) (A) (A) (A) (A) (A) (A) (A) (A)
 The electronic state is 1-A.
 Alpha  occ. eigenvalues --  -20.53667 -20.53229 -20.52030 -20.51609 -15.60316
 Alpha  occ. eigenvalues --  -15.59651 -15.57948 -15.57498 -11.35996 -11.35550
 Alpha  occ. eigenvalues --  -11.34234 -11.33696 -11.28966 -11.28557 -11.26999
 Alpha  occ. eigenvalues --  -11.25068 -11.24340 -11.23358 -11.22479 -11.22394
 Alpha  occ. eigenvalues --  -11.22258 -11.22229 -11.22125 -11.21944 -11.21817
 Alpha  occ. eigenvalues --  -11.21711 -11.21306 -11.19879  -1.40769  -1.40179
 Alpha  occ. eigenvalues --   -1.39365  -1.38092  -1.26433  -1.23748  -1.23529
 Alpha  occ. eigenvalues --   -1.22658  -1.10504  -1.08901  -1.07078  -1.04091
 Alpha  occ. eigenvalues --   -1.01023  -0.99249  -0.98709  -0.97297  -0.94982
 Alpha  occ. eigenvalues --   -0.94305  -0.91695  -0.87392  -0.85865  -0.82778
 Alpha  occ. eigenvalues --   -0.81630  -0.80404  -0.79461  -0.76893  -0.76339
 Alpha  occ. eigenvalues --   -0.74370  -0.71732  -0.71016  -0.68000  -0.67687
 Alpha  occ. eigenvalues --   -0.66777  -0.65985  -0.65148  -0.64296  -0.63915
 Alpha  occ. eigenvalues --   -0.63280  -0.63086  -0.61756  -0.61426  -0.61364
 Alpha  occ. eigenvalues --   -0.61078  -0.60270  -0.59359  -0.58788  -0.58665
 Alpha  occ. eigenvalues --   -0.57775  -0.57609  -0.56857  -0.56580  -0.56327
 Alpha  occ. eigenvalues --   -0.56095  -0.55214  -0.54815  -0.54604  -0.53805
 Alpha  occ. eigenvalues --   -0.53637  -0.53055  -0.52425  -0.51971  -0.51825
 Alpha  occ. eigenvalues --   -0.51125  -0.49971  -0.49699  -0.48738  -0.47858
 Alpha  occ. eigenvalues --   -0.47666  -0.46943  -0.46301  -0.44205  -0.43565
 Alpha  occ. eigenvalues --   -0.41543  -0.41501  -0.41048  -0.40585  -0.38917
 Alpha  occ. eigenvalues --   -0.38848  -0.38305  -0.34352
 Alpha virt. eigenvalues --    0.17229   0.17853   0.18166   0.19456   0.19665
 Alpha virt. eigenvalues --    0.21603   0.21977   0.23018   0.23271   0.24320
 Alpha virt. eigenvalues --    0.25076   0.25927   0.26595   0.26734   0.27391
 Alpha virt. eigenvalues --    0.27948   0.28448   0.28661   0.29232   0.29518
 Alpha virt. eigenvalues --    0.30422   0.31081   0.31198   0.31357   0.31774
 Alpha virt. eigenvalues --    0.32235   0.32507   0.33044   0.33463   0.33533
 Alpha virt. eigenvalues --    0.34100   0.34554   0.34680   0.35380   0.35447
 Alpha virt. eigenvalues --    0.36011   0.36709   0.36931   0.37353   0.37704
 Alpha virt. eigenvalues --    0.38597   0.38802   0.39358   0.40186   0.40573
 Alpha virt. eigenvalues --    0.40929   0.41801   0.42040   0.42682   0.44082
 Alpha virt. eigenvalues --    0.44878   0.45627   0.46034   0.46206   0.46739
 Alpha virt. eigenvalues --    0.47291   0.48550   0.49138   0.51787   0.52305
 Alpha virt. eigenvalues --    0.54027   0.56092   0.57792   0.59545   0.60008
 Alpha virt. eigenvalues --    0.62097   0.63590   0.64281   0.68649   0.70190
 Alpha virt. eigenvalues --    0.70962   0.71267   0.71561   0.72587   0.73077
 Alpha virt. eigenvalues --    0.74003   0.74383   0.75413   0.75450   0.76307
 Alpha virt. eigenvalues --    0.76662   0.77392   0.77556   0.78361   0.78999
 Alpha virt. eigenvalues --    0.79340   0.79746   0.80594   0.81230   0.81778
 Alpha virt. eigenvalues --    0.83568   0.84255   0.84627   0.85487   0.86606
 Alpha virt. eigenvalues --    0.86935   0.87826   0.88381   0.89718   0.90339
 Alpha virt. eigenvalues --    0.91470   0.91833   0.92333   0.92634   0.93645
 Alpha virt. eigenvalues --    0.93957   0.94709   0.96205   0.97175   0.97790
 Alpha virt. eigenvalues --    0.98585   0.99002   0.99212   0.99985   1.00328
 Alpha virt. eigenvalues --    1.00887   1.01628   1.02153   1.02697   1.03981
 Alpha virt. eigenvalues --    1.04078   1.04671   1.05543   1.06480   1.07388
 Alpha virt. eigenvalues --    1.07591   1.08272   1.09554   1.10377   1.10930
 Alpha virt. eigenvalues --    1.11896   1.12620   1.13231   1.13634   1.13883
 Alpha virt. eigenvalues --    1.14335   1.14586   1.14920   1.15251   1.15328
 Alpha virt. eigenvalues --    1.16183   1.16246   1.16849   1.17122   1.17703
 Alpha virt. eigenvalues --    1.18262   1.18369   1.18993   1.19319   1.19446
 Alpha virt. eigenvalues --    1.19623   1.20326   1.20705   1.21120   1.21441
 Alpha virt. eigenvalues --    1.21768   1.22051   1.22146   1.22442   1.22913
 Alpha virt. eigenvalues --    1.23620   1.24075   1.24674   1.25921   1.26003
 Alpha virt. eigenvalues --    1.26532   1.26712   1.27174   1.28695   1.29171
 Alpha virt. eigenvalues --    1.29672   1.30303   1.31211   1.31859   1.32700
 Alpha virt. eigenvalues --    1.33432   1.35554   1.35845   1.36077   1.37800
 Alpha virt. eigenvalues --    1.38438   1.38980   1.41198   1.42136   1.42669
 Alpha virt. eigenvalues --    1.45345   1.45521   1.47186   1.47685   1.48883
 Alpha virt. eigenvalues --    1.50481   1.51817   1.52637   1.54248   1.54892
 Alpha virt. eigenvalues --    1.55489   1.58061   1.58571   1.59865   1.61328
 Alpha virt. eigenvalues --    1.62222   1.62465   1.65395   1.66909   1.69016
 Alpha virt. eigenvalues --    1.70536   1.70991   1.71787   1.72220   1.73168
 Alpha virt. eigenvalues --    1.74528   1.74919   1.78139   1.78671   1.80403
 Alpha virt. eigenvalues --    1.80780   1.81663   1.83124   1.87103   1.88458
 Alpha virt. eigenvalues --    1.89746   1.89949   1.91539   1.93015   1.94011
 Alpha virt. eigenvalues --    1.94864   1.96014   1.98475   1.98834   2.01620
 Alpha virt. eigenvalues --    2.04636   2.04965   2.05608   2.06936   2.07647
 Alpha virt. eigenvalues --    2.09249   2.09889   2.11204   2.12091   2.12218
 Alpha virt. eigenvalues --    2.12835   2.13559   2.14339   2.14787   2.15241
 Alpha virt. eigenvalues --    2.16328   2.16529   2.18194   2.18798   2.19243
 Alpha virt. eigenvalues --    2.20185   2.21002   2.21354   2.22890   2.24716
 Alpha virt. eigenvalues --    2.25591   2.25840   2.26199   2.27053   2.27834
 Alpha virt. eigenvalues --    2.28451   2.29367   2.30589   2.31562   2.31918
 Alpha virt. eigenvalues --    2.32850   2.33481   2.33963   2.34403   2.35939
 Alpha virt. eigenvalues --    2.36653   2.36697   2.37569   2.38160   2.38941
 Alpha virt. eigenvalues --    2.39403   2.40226   2.42140   2.42588   2.43645
 Alpha virt. eigenvalues --    2.45701   2.46138   2.47471   2.48613   2.49479
 Alpha virt. eigenvalues --    2.50426   2.52596   2.53726   2.55204   2.55258
 Alpha virt. eigenvalues --    2.56404   2.57173   2.57915   2.59399   2.61126
 Alpha virt. eigenvalues --    2.62338   2.63073   2.63705   2.64967   2.65562
 Alpha virt. eigenvalues --    2.67329   2.68669   2.69025   2.70119   2.71505
 Alpha virt. eigenvalues --    2.73206   2.74456   2.74654   2.75217   2.76222
 Alpha virt. eigenvalues --    2.76555   2.77811   2.78908   2.78962   2.79574
 Alpha virt. eigenvalues --    2.80615   2.82358   2.82999   2.84642   2.86055
 Alpha virt. eigenvalues --    2.86361   2.88267   2.91039   2.92069   2.93065
 Alpha virt. eigenvalues --    2.95830   2.98034   2.99113   3.00797   3.01596
 Alpha virt. eigenvalues --    3.03367   3.04628   3.05521   3.06834   3.09012
 Alpha virt. eigenvalues --    3.10400   3.11080   3.12922   3.13202   3.15796
 Alpha virt. eigenvalues --    3.18383   3.18602   3.22220   3.26775   3.30604
 Alpha virt. eigenvalues --    3.34400   3.35219   3.38758   3.40527   3.41344
 Alpha virt. eigenvalues --    3.42709   3.43192   3.52690   3.55710   3.57598
 Alpha virt. eigenvalues --    3.58327   4.38412   4.39671   4.43886   4.48992
 Alpha virt. eigenvalues --    4.49188   4.51911   4.54563   4.57251   4.61369
 Alpha virt. eigenvalues --    4.63739   4.64259   4.66887   4.68509   4.70229
 Alpha virt. eigenvalues --    4.70999   4.75506   4.78478   4.82077   4.83814
 Alpha virt. eigenvalues --    4.89293   4.89818   4.93986   4.95549   4.99286
 Alpha virt. eigenvalues --    5.01552   5.07179   5.23462   5.23829
          Condensed to atoms (all electrons):
 Mulliken atomic charges:
              1
     1  C   -0.284777
     2  N   -0.792549
     3  C    0.801746
     4  O   -0.612199
     5  C    0.081989
     6  C   -0.480947
     7  C   -0.323805
     8  C   -0.316465
     9  C   -0.373122
    10  C   -0.173039
    11  C   -0.176578
    12  C   -0.353690
    13  C   -0.310910
    14  C   -0.328760
    15  C    0.091100
    16  C   -0.509471
    17  N   -0.787564
    18  C    0.767199
    19  C   -0.595705
    20  O   -0.614272
    21  C    0.820601
    22  O   -0.638925
    23  N   -0.806298
    24  C   -0.275310
    25  N   -0.827171
    26  C    0.762010
    27  C   -0.592008
    28  O   -0.597279
    29  H    0.180131
    30  H    0.213185
    31  H    0.171242
    32  H    0.371192
    33  H    0.190013
    34  H    0.225232
    35  H    0.168282
    36  H    0.218562
    37  H    0.153687
    38  H    0.164733
    39  H    0.177333
    40  H    0.201271
    41  H    0.174245
    42  H    0.170808
    43  H    0.167619
    44  H    0.179601
    45  H    0.161043
    46  H    0.151529
    47  H    0.198594
    48  H    0.173591
    49  H    0.183693
    50  H    0.183861
    51  H    0.147476
    52  H    0.226451
    53  H    0.390234
    54  H    0.211029
    55  H    0.209617
    56  H    0.176734
    57  H    0.395080
    58  H    0.163793
    59  H    0.199435
    60  H    0.185332
    61  H    0.366031
    62  H    0.221420
    63  H    0.178690
    64  H    0.195433
 Sum of Mulliken atomic charges =   0.00000
 Mulliken charges with hydrogens summed into heavy atoms:
              1
     1  C    0.279781
     2  N   -0.421357
     3  C    0.801746
     4  O   -0.612199
     5  C    0.081989
     6  C    0.102579
     7  C    0.048443
     8  C    0.025600
     9  C    0.002393
    10  C   -0.002231
    11  C   -0.008959
    12  C   -0.013046
    13  C    0.039214
    14  C    0.028524
    15  C    0.091100
    16  C    0.048318
    17  N   -0.397330
    18  C    0.767199
    19  C    0.001674
    20  O   -0.614272
    21  C    0.820601
    22  O   -0.638925
    23  N   -0.411218
    24  C    0.273250
    25  N   -0.461140
    26  C    0.762010
    27  C    0.003536
    28  O   -0.597279
 Sum of Mulliken charges with hydrogens summed into heavy atoms =   0.00000
 Electronic spatial extent (au):  <R**2>=          21702.2179
 Charge=              0.0000 electrons
 Dipole moment (field-independent basis, Debye):
    X=             -2.7465    Y=              0.7856    Z=              7.0961  Tot=              7.6495
 Quadrupole moment (field-independent basis, Debye-Ang):
   XX=           -198.4421   YY=           -163.7209   ZZ=           -168.9295
   XY=            -21.2846   XZ=            -22.8947   YZ=             12.0431
 Traceless Quadrupole moment (field-independent basis, Debye-Ang):
   XX=            -21.4113   YY=             13.3099   ZZ=              8.1014
   XY=            -21.2846   XZ=            -22.8947   YZ=             12.0431
 Octapole moment (field-independent basis, Debye-Ang**2):
  XXX=           -263.4512  YYY=             57.6585  ZZZ=             18.6725  XYY=            105.8749
  XXY=             35.9137  XXZ=            175.8772  XZZ=            -18.6803  YZZ=             -6.1039
  YYZ=             21.5622  XYZ=             17.1396
 Hexadecapole moment (field-independent basis, Debye-Ang**3):
 XXXX=         -26653.3458 YYYY=          -2612.9025 ZZZZ=          -1389.8881 XXXY=          -1126.1585
 XXXZ=          -1173.4016 YYYX=            -38.6127 YYYZ=             47.2148 ZZZX=            -57.2457
 ZZZY=             33.8465 XXYY=          -4390.8718 XXZZ=          -4095.8831 YYZZ=           -682.8767
 XXYZ=            171.8306 YYXZ=           -144.4695 ZZXY=             44.0798
 N-N= 2.681452920924D+03 E-N=-8.394672319426D+03  KE= 1.294079568035D+03
 1\1\GINC-MOSURA\SP\RHF\6-31G(d)\C20H36N4O4\MARIE\05-Dec-2019\0\\#SP HF
 /6-31G* Geom=(ModRedundant)\\paramfit run\\0,1\C,0,0.,0.,0.\N,0,1.4481
 87,0.,0.\C,0,2.1232,0.47592,1.072365\O,0,1.590179,0.696732,2.124447\C,
 0,3.650505,0.594143,0.921539\C,0,4.198902,1.549248,1.986845\C,0,4.3077
 51,-0.809116,1.023981\C,0,4.133566,-1.622781,2.319066\C,0,2.832729,-2.
 433298,2.484965\C,0,2.579342,-3.423586,1.372579\C,0,2.834093,-4.721989
 ,1.375535\C,0,3.442731,-5.535663,2.492337\C,0,2.42774,-6.370218,3.2941
 33\C,0,1.693892,-7.402618,2.427801\C,0,0.774274,-8.428536,3.139447\C,0
 ,0.118887,-9.296969,2.053288\N,0,1.59533,-9.267679,4.001559\C,0,1.0367
 79,-10.167772,4.862321\C,0,1.96438,-10.678762,5.940862\O,0,-0.103289,-
 10.530888,4.775526\C,0,-0.228361,-7.657085,4.027316\O,0,0.090004,-7.29
 6707,5.128542\N,0,-1.416619,-7.323616,3.478843\C,0,-2.421442,-6.64525,
 4.271531\N,0,3.997412,1.070275,-0.425452\C,0,5.277389,1.271617,-0.8506
 49\C,0,5.441988,1.414264,-2.349541\O,0,6.205544,1.343378,-0.095983\H,0
 ,-0.403259,1.006147,0.\H,0,-0.36496,-0.516002,0.875939\H,0,-0.345658,-
 0.522086,-0.883346\H,0,1.904244,0.070913,-0.879357\H,0,3.932135,1.2217
 6,2.980082\H,0,5.28092,1.595925,1.9075\H,0,3.792711,2.540594,1.848395\
 H,0,5.374584,-0.64325,0.891407\H,0,3.984642,-1.403324,0.174983\H,0,4.9
 61565,-2.324757,2.354635\H,0,4.250121,-0.975721,3.182259\H,0,1.985724,
 -1.764045,2.562723\H,0,2.895638,-2.94811,3.437249\H,0,2.135502,-3.0091
 81,0.481856\H,0,2.579482,-5.276386,0.485828\H,0,3.971519,-4.889909,3.1
 82881\H,0,4.191817,-6.202016,2.066382\H,0,2.965623,-6.85691,4.102952\H
 ,0,1.714584,-5.707921,3.766998\H,0,2.42081,-7.979938,1.860503\H,0,1.08
 3167,-6.875737,1.704087\H,0,0.891187,-9.872528,1.556434\H,0,-0.36551,-
 8.684705,1.299714\H,0,-0.597925,-9.98679,2.472891\H,0,2.435807,-8.8478
 4,4.327205\H,0,1.585188,-11.616367,6.31792\H,0,1.981002,-9.957975,6.75
 2844\H,0,2.97817,-10.810647,5.57862\H,0,-1.730263,-7.831365,2.685667\H
 ,0,-3.24021,-6.362494,3.623002\H,0,-1.998054,-5.755067,4.713054\H,0,-2
 .799425,-7.276973,5.068907\H,0,3.319451,0.89049,-1.132271\H,0,6.363739
 ,1.940316,-2.551081\H,0,4.612231,1.942847,-2.805231\H,0,5.50239,0.4272
 62,-2.796732\\Version=EM64L-G09RevA.02\State=1-A\HF=-1295.6033699\RMSD
 =6.850e-09\Dipole=-0.2922564,0.0908651,-2.9939532\Quadrupole=-1.287459
 5,-13.4110355,14.698495,-19.7715283,11.5869569,-9.4961747\PG=C01 [X(C2
 0H36N4O4)]\\@


 SCIENCE AT ITS BEST PROVIDES US WITH BETTER QUESTIONS, 
 NOT ABSOLUTE ANSWERS

                                    -- NORMAN COUSINS, 1976
 Job cpu time:  0 days  0 hours  5 minutes 16.6 seconds.
 File lengths (MBytes):  RWF=    132 Int=      0 D2E=      0 Chk=     10 Scr=      1
 Normal termination of Gaussian 09 at Thu Dec  5 15:59:42 2019.
