 Entering Gaussian System, Link 0=g09
 Input=PHI_-40.gau
 Output=PHI_-40.log
 Initial command:
 /home/marie/Utilities//g09/l1.exe /tmp/g09/Gau-2987.inp -scrdir=/tmp/g09/
 Entering Link 1 = /home/marie/Utilities//g09/l1.exe PID=      2990.
  
 Copyright (c) 1988,1990,1992,1993,1995,1998,2003,2009, Gaussian, Inc.
                  All Rights Reserved.
  
 This is part of the Gaussian(R) 09 program.  It is based on
 the Gaussian(R) 03 system (copyright 2003, Gaussian, Inc.),
 the Gaussian(R) 98 system (copyright 1998, Gaussian, Inc.),
 the Gaussian(R) 94 system (copyright 1995, Gaussian, Inc.),
 the Gaussian 92(TM) system (copyright 1992, Gaussian, Inc.),
 the Gaussian 90(TM) system (copyright 1990, Gaussian, Inc.),
 the Gaussian 88(TM) system (copyright 1988, Gaussian, Inc.),
 the Gaussian 86(TM) system (copyright 1986, Carnegie Mellon
 University), and the Gaussian 82(TM) system (copyright 1983,
 Carnegie Mellon University). Gaussian is a federally registered
 trademark of Gaussian, Inc.
  
 This software contains proprietary and confidential information,
 including trade secrets, belonging to Gaussian, Inc.
  
 This software is provided under written license and may be
 used, copied, transmitted, or stored only in accord with that
 written license.
  
 The following legend is applicable only to US Government
 contracts under FAR:
  
                    RESTRICTED RIGHTS LEGEND
  
 Use, reproduction and disclosure by the US Government is
 subject to restrictions as set forth in subparagraphs (a)
 and (c) of the Commercial Computer Software - Restricted
 Rights clause in FAR 52.227-19.
  
 Gaussian, Inc.
 340 Quinnipiac St., Bldg. 40, Wallingford CT 06492
  
  
 ---------------------------------------------------------------
 Warning -- This program may not be used in any manner that
 competes with the business of Gaussian, Inc. or will provide
 assistance to any competitor of Gaussian, Inc.  The licensee
 of this program is prohibited from giving any competitor of
 Gaussian, Inc. access to this program.  By using this program,
 the user acknowledges that Gaussian, Inc. is engaged in the
 business of creating and licensing software in the field of
 computational chemistry and represents and warrants to the
 licensee that it is not a competitor of Gaussian, Inc. and that
 it will not use this program in any manner prohibited above.
 ---------------------------------------------------------------
  

 Cite this work as:
 Gaussian 09, Revision A.02,
 M. J. Frisch, G. W. Trucks, H. B. Schlegel, G. E. Scuseria, 
 M. A. Robb, J. R. Cheeseman, G. Scalmani, V. Barone, B. Mennucci, 
 G. A. Petersson, H. Nakatsuji, M. Caricato, X. Li, H. P. Hratchian, 
 A. F. Izmaylov, J. Bloino, G. Zheng, J. L. Sonnenberg, M. Hada, 
 M. Ehara, K. Toyota, R. Fukuda, J. Hasegawa, M. Ishida, T. Nakajima, 
 Y. Honda, O. Kitao, H. Nakai, T. Vreven, J. A. Montgomery, Jr., 
 J. E. Peralta, F. Ogliaro, M. Bearpark, J. J. Heyd, E. Brothers, 
 K. N. Kudin, V. N. Staroverov, R. Kobayashi, J. Normand, 
 K. Raghavachari, A. Rendell, J. C. Burant, S. S. Iyengar, J. Tomasi, 
 M. Cossi, N. Rega, J. M. Millam, M. Klene, J. E. Knox, J. B. Cross, 
 V. Bakken, C. Adamo, J. Jaramillo, R. Gomperts, R. E. Stratmann, 
 O. Yazyev, A. J. Austin, R. Cammi, C. Pomelli, J. W. Ochterski, 
 R. L. Martin, K. Morokuma, V. G. Zakrzewski, G. A. Voth, 
 P. Salvador, J. J. Dannenberg, S. Dapprich, A. D. Daniels, 
 O. Farkas, J. B. Foresman, J. V. Ortiz, J. Cioslowski, 
 and D. J. Fox, Gaussian, Inc., Wallingford CT, 2009.
 
 ******************************************
 Gaussian 09:  EM64L-G09RevA.02 11-Jun-2009
                 5-Dec-2019 
 ******************************************
 %chk=PHI_-40
 %NoSave
 ---------------------------------
 #SP HF/6-31G* Geom=(ModRedundant)
 ---------------------------------
 1/18=120,38=1/1;
 2/12=2,17=6,18=5,40=1/2;
 3/5=1,6=6,7=1,11=9,16=1,25=1,30=1/1,2,3;
 4//1;
 5/5=2,38=5/2;
 6/7=2,8=2,9=2,10=2,28=1/1;
 99/5=1,9=1/99;
 ------------
 paramfit run
 ------------
 Symbolic Z-matrix:
 Charge =  0 Multiplicity = 1
 C-CT--0.3208          0.        0.        0. 
 N-N--0.5622           1.44819   0.        0. 
 C-C-0.8053            2.1232    0.47592   1.07237 
 O-O--0.6151           1.59018   0.69673   2.12445 
 C-CX-0.0839           3.65051   0.59414   0.92154 
 C-CU--0.3230          4.1989    1.54925   1.98685 
 C-CU--0.0657          4.30775  -0.80912   1.02398 
 C-CU--0.0109          4.13357  -1.62278   2.31907 
 C-CU-0.0816           2.83273  -2.4333    2.48497 
 C-CM--0.2354          2.57934  -3.42359   1.37258 
 C-CM--0.2653          2.83409  -4.72199   1.37554 
 C-CU-0.1214           3.44273  -5.53566   2.49234 
 C-CU--0.0354          2.42774  -6.37022   3.29413 
 C-CU--0.0984          1.69389  -7.40262   2.4278 
 C-CU-0.1300           0.77427  -8.42854   3.13945 
 C-CU--0.3561          0.11889  -9.29697   2.05329 
 N-N--0.7186           1.59533  -9.26768   4.00156 
 C-C-0.8537            1.03678  -10.16777   4.86232 
 C-CT--0.3868          1.96438  -10.67876   5.94086 
 O-O--0.6323          -0.10329  -10.53089   4.77553 
 C-C-0.7903           -0.22836  -7.65709   4.02732 
 O-O--0.6136           0.09     -7.29671   5.12854 
 N-N--0.5650          -1.41662  -7.32362   3.47884 
 C-CT--0.3231         -2.42144  -6.64525   4.27153 
 N-N--0.7191           3.99741   1.07028  -0.42545 
 C-C-0.8539            3.36233   0.65957  -1.5602 
 C-CT--0.3903          3.61593   1.5148   -2.78429 
 O-O--0.6290           2.6635   -0.31339  -1.59384 
 H-H1-0.1459          -0.40326   1.00615   0. 
 H-H1-0.1459          -0.36496  -0.516     0.87594 
 H-H1-0.1459          -0.34566  -0.52209  -0.88335 
 H-H-0.3572            1.90424   0.07091  -0.87936 
 H-HC-0.0997           3.93214   1.22176   2.98008 
 H-HC-0.0997           5.28092   1.59593   1.9075 
 H-HC-0.0997           3.79271   2.54059   1.8484 
 H-HC-0.0347           5.37458  -0.64325   0.89141 
 H-HC-0.0347           3.98464  -1.40332   0.17498 
 H-HC-0.0243           4.96157  -2.32476   2.35464 
 H-HC-0.0243           4.25012  -0.97572   3.18226 
 H-HC-0.0171           1.98572  -1.76405   2.56272 
 H-HC-0.0171           2.89564  -2.94811   3.43725 
 H-HA-0.1313           2.1355   -3.00918   0.48186 
 H-HA-0.1359           2.57948  -5.27639   0.48583 
 H-HC-0.0092           3.97152  -4.88991   3.18288 
 H-HC-0.0092           4.19182  -6.20202   2.06638 
 H-HC-0.0318           2.96562  -6.85691   4.10295 
 H-HC-0.0318           1.71458  -5.70792   3.767 
 H-HC-0.0435           2.42081  -7.97994   1.8605 
 H-HC-0.0435           1.08317  -6.87574   1.70409 
 H-HC-0.1066           0.89119  -9.87253   1.55643 
 H-HC-0.1066          -0.36551  -8.68471   1.29971 
 H-HC-0.1066          -0.59793  -9.98679   2.47289 
 H-H-0.3529            2.43581  -8.84784   4.32721 
 H-HC-0.1047           1.58519  -11.61637   6.31792 
 H-HC-0.1047           1.981    -9.95798   6.75284 
 H-HC-0.1047           2.97817  -10.81065   5.57862 
 H-H-0.3615           -1.73026  -7.83136   2.68567 
 H-H1-0.1469          -3.24021  -6.36249   3.623 
 H-H1-0.1469          -1.99805  -5.75507   4.71305 
 H-H1-0.1469          -2.79943  -7.27697   5.06891 
 H-H-0.3570            4.44268   1.96007  -0.46492 
 H-HC-0.1060           3.41626   0.92699  -3.66837 
 H-HC-0.1060           4.63173   1.89238  -2.81805 
 H-HC-0.1060           2.93877   2.36281  -2.7728 
 
 The following ModRedundant input section has been read:
 D    *    5   25    * F                                                       
 Stoichiometry    C20H36N4O4
 Framework group  C1[X(C20H36N4O4)]
 Deg. of freedom   186
 Full point group                 C1      NOp   1
 Largest Abelian subgroup         C1      NOp   1
 Largest concise Abelian subgroup C1      NOp   1
                         Standard orientation:                         
 ---------------------------------------------------------------------
 Center     Atomic      Atomic             Coordinates (Angstroms)
 Number     Number       Type             X           Y           Z
 ---------------------------------------------------------------------
      1          6    20001001       -3.954381    2.898727   -0.013692
      2          7    20001014       -4.301658    1.498416    0.111898
      3          6    20001002       -4.460299    0.740121   -0.998026
      4          8    20001024       -4.111203    1.107236   -2.085732
      5          6    90000001       -4.991099   -0.688221   -0.780140
      6          6    90000002       -5.546847   -1.235819   -2.098898
      7          6    90000002       -3.864484   -1.596866   -0.217374
      8          6    90000002       -2.588335   -1.808059   -1.051926
      9          6    90000002       -1.492330   -0.727094   -0.968715
     10          6    20001004       -0.994804   -0.462712    0.433015
     11          6    20001004        0.095974   -0.945316    1.005776
     12          6    90000002        1.113750   -1.881533    0.399656
     13          6    90000002        2.414536   -1.195186   -0.054713
     14          6    90000002        3.162116   -0.517929    1.101730
     15          6    90000002        4.573895    0.057594    0.818362
     16          6    90000002        5.070223    0.728115    2.109683
     17          7    20001014        5.462365   -1.043040    0.470862
     18          6    20001002        6.735147   -0.820501    0.030908
     19          6    20001001        7.393022   -2.003329   -0.642089
     20          8    20001024        7.295945    0.231489    0.164942
     21          6    20001002        4.482524    1.008178   -0.396861
     22          8    20001024        4.523245    0.568595   -1.514463
     23          7    20001014        4.254562    2.315905   -0.148132
     24          6    20001001        4.208489    3.268745   -1.238167
     25          7    20001014       -6.030104   -0.696030    0.259975
     26          6    20001002       -5.963559    0.046667    1.401747
     27          6    20001001       -7.267448    0.175899    2.161545
     28          8    20001024       -4.947036    0.551760    1.786070
     29          1    20001035       -4.749366    3.471337   -0.477445
     30          1    20001035       -3.062404    3.001096   -0.614209
     31          1    20001035       -3.758893    3.296329    0.974260
     32          1    20001029       -4.822380    1.227761    0.913072
     33          1    20001034       -4.798997   -1.215172   -2.876861
     34          1    20001034       -5.879130   -2.259384   -1.953506
     35          1    20001034       -6.382883   -0.638272   -2.431926
     36          1    20001034       -4.319851   -2.574577   -0.076160
     37          1    20001034       -3.596872   -1.240312    0.772340
     38          1    20001034       -2.150674   -2.742509   -0.712993
     39          1    20001034       -2.847628   -1.957833   -2.094858
     40          1    20001034       -1.851518    0.199501   -1.397399
     41          1    20001034       -0.673753   -1.051903   -1.601380
     42          1    20001033       -1.608650    0.201182    1.019999
     43          1    20001033        0.295743   -0.640479    2.021122
     44          1    20001034        0.688335   -2.399235   -0.451503
     45          1    20001034        1.355849   -2.650574    1.132157
     46          1    20001034        3.037433   -1.948474   -0.528983
     47          1    20001034        2.186007   -0.470023   -0.824611
     48          1    20001034        3.274608   -1.224062    1.921643
     49          1    20001034        2.554798    0.297851    1.475921
     50          1    20001034        5.198190   -0.034193    2.869348
     51          1    20001034        4.345107    1.442593    2.485330
     52          1    20001034        6.019762    1.220851    1.963650
     53          1    20001029        5.017802   -1.837811    0.071593
     54          1    20001034        8.464333   -1.874422   -0.614936
     55          1    20001034        7.072056   -2.033917   -1.678993
     56          1    20001034        7.123229   -2.942690   -0.171774
     57          1    20001029        4.465404    2.669009    0.755291
     58          1    20001035        3.897212    4.227904   -0.845685
     59          1    20001035        3.493033    2.941926   -1.978394
     60          1    20001035        5.175010    3.376762   -1.719752
     61          1    20001029       -6.941089   -0.957954   -0.045064
     62          1    20001034       -7.049016    0.420540    3.190821
     63          1    20001034       -7.859045   -0.731715    2.119123
     64          1    20001034       -7.852050    0.982586    1.731082
 ---------------------------------------------------------------------
 Rotational constants (GHZ):      0.3752378      0.0530121      0.0516530
 Standard basis: 6-31G(d) (6D, 7F)
 There are   492 symmetry adapted basis functions of A   symmetry.
 Integral buffers will be    131072 words long.
 Raffenetti 1 integral format.
 Two-electron integral symmetry is turned on.
   492 basis functions,   928 primitive gaussians,   492 cartesian basis functions
   108 alpha electrons      108 beta electrons
       nuclear repulsion energy      2723.6748747100 Hartrees.
 NAtoms=   64 NActive=   64 NUniq=   64 SFac= 7.50D-01 NAtFMM=   80 NAOKFM=F Big=T
 One-electron integrals computed using PRISM.
 NBasis=   492 RedAO= T  NBF=   492
 NBsUse=   492 1.00D-06 NBFU=   492
 Harris functional with IExCor=  205 diagonalized for initial guess.
 ExpMin= 1.61D-01 ExpMax= 5.48D+03 ExpMxC= 8.25D+02 IAcc=1 IRadAn=         1 AccDes= 0.00D+00
 HarFok:  IExCor=  205 AccDes= 0.00D+00 IRadAn=         1 IDoV= 1
 ScaDFX=  1.000000  1.000000  1.000000  1.000000
 FoFCou: FMM=F IPFlag=           0 FMFlag=      100000 FMFlg1=           1
         NFxFlg=           0 DoJE=T BraDBF=F KetDBF=T FulRan=T
         Omega=  0.000000  0.000000  1.000000  0.000000  0.000000 ICntrl=     500 IOpCl=  0
         NMat0=    1 NMatS0=    1 NMatT0=    0 NMatD0=    1 NMtDS0=    0 NMtDT0=    0
         I1Cent=           4 NGrid=           0.
 Petite list used in FoFCou.
 Initial guess orbital symmetries:
       Occupied  (A) (A) (A) (A) (A) (A) (A) (A) (A) (A) (A) (A)
                 (A) (A) (A) (A) (A) (A) (A) (A) (A) (A) (A) (A)
                 (A) (A) (A) (A) (A) (A) (A) (A) (A) (A) (A) (A)
                 (A) (A) (A) (A) (A) (A) (A) (A) (A) (A) (A) (A)
                 (A) (A) (A) (A) (A) (A) (A) (A) (A) (A) (A) (A)
                 (A) (A) (A) (A) (A) (A) (A) (A) (A) (A) (A) (A)
                 (A) (A) (A) (A) (A) (A) (A) (A) (A) (A) (A) (A)
                 (A) (A) (A) (A) (A) (A) (A) (A) (A) (A) (A) (A)
                 (A) (A) (A) (A) (A) (A) (A) (A) (A) (A) (A) (A)
       Virtual   (A) (A) (A) (A) (A) (A) (A) (A) (A) (A) (A) (A)
                 (A) (A) (A) (A) (A) (A) (A) (A) (A) (A) (A) (A)
                 (A) (A) (A) (A) (A) (A) (A) (A) (A) (A) (A) (A)
                 (A) (A) (A) (A) (A) (A) (A) (A) (A) (A) (A) (A)
                 (A) (A) (A) (A) (A) (A) (A) (A) (A) (A) (A) (A)
                 (A) (A) (A) (A) (A) (A) (A) (A) (A) (A) (A) (A)
                 (A) (A) (A) (A) (A) (A) (A) (A) (A) (A) (A) (A)
                 (A) (A) (A) (A) (A) (A) (A) (A) (A) (A) (A) (A)
                 (A) (A) (A) (A) (A) (A) (A) (A) (A) (A) (A) (A)
                 (A) (A) (A) (A) (A) (A) (A) (A) (A) (A) (A) (A)
                 (A) (A) (A) (A) (A) (A) (A) (A) (A) (A) (A) (A)
                 (A) (A) (A) (A) (A) (A) (A) (A) (A) (A) (A) (A)
                 (A) (A) (A) (A) (A) (A) (A) (A) (A) (A) (A) (A)
                 (A) (A) (A) (A) (A) (A) (A) (A) (A) (A) (A) (A)
                 (A) (A) (A) (A) (A) (A) (A) (A) (A) (A) (A) (A)
                 (A) (A) (A) (A) (A) (A) (A) (A) (A) (A) (A) (A)
                 (A) (A) (A) (A) (A) (A) (A) (A) (A) (A) (A) (A)
                 (A) (A) (A) (A) (A) (A) (A) (A) (A) (A) (A) (A)
                 (A) (A) (A) (A) (A) (A) (A) (A) (A) (A) (A) (A)
                 (A) (A) (A) (A) (A) (A) (A) (A) (A) (A) (A) (A)
                 (A) (A) (A) (A) (A) (A) (A) (A) (A) (A) (A) (A)
                 (A) (A) (A) (A) (A) (A) (A) (A) (A) (A) (A) (A)
                 (A) (A) (A) (A) (A) (A) (A) (A) (A) (A) (A) (A)
                 (A) (A) (A) (A) (A) (A) (A) (A) (A) (A) (A) (A)
                 (A) (A) (A) (A) (A) (A) (A) (A) (A) (A) (A) (A)
                 (A) (A) (A) (A) (A) (A) (A) (A) (A) (A) (A) (A)
                 (A) (A) (A) (A) (A) (A) (A) (A) (A) (A) (A) (A)
                 (A) (A) (A) (A) (A) (A) (A) (A) (A) (A) (A) (A)
                 (A) (A) (A) (A) (A) (A) (A) (A) (A) (A) (A) (A)
                 (A) (A) (A) (A) (A) (A) (A) (A) (A) (A) (A) (A)
                 (A) (A) (A) (A) (A) (A) (A) (A) (A) (A) (A) (A)
                 (A) (A) (A) (A) (A) (A) (A) (A) (A) (A) (A) (A)
 The electronic state of the initial guess is 1-A.
 Requested convergence on RMS density matrix=1.00D-08 within 128 cycles.
 Requested convergence on MAX density matrix=1.00D-06.
 Requested convergence on             energy=1.00D-06.
 No special actions if energy rises.
 Integral accuracy reduced to 1.0D-05 until final iterations.
 Initial convergence to 1.0D-05 achieved.  Increase integral accuracy.
 SCF Done:  E(RHF) =  -1295.50078260     A.U. after   14 cycles
             Convg  =    0.7388D-08             -V/T =  2.0005

 **********************************************************************

            Population analysis using the SCF density.

 **********************************************************************

 Orbital symmetries:
       Occupied  (A) (A) (A) (A) (A) (A) (A) (A) (A) (A) (A) (A)
                 (A) (A) (A) (A) (A) (A) (A) (A) (A) (A) (A) (A)
                 (A) (A) (A) (A) (A) (A) (A) (A) (A) (A) (A) (A)
                 (A) (A) (A) (A) (A) (A) (A) (A) (A) (A) (A) (A)
                 (A) (A) (A) (A) (A) (A) (A) (A) (A) (A) (A) (A)
                 (A) (A) (A) (A) (A) (A) (A) (A) (A) (A) (A) (A)
                 (A) (A) (A) (A) (A) (A) (A) (A) (A) (A) (A) (A)
                 (A) (A) (A) (A) (A) (A) (A) (A) (A) (A) (A) (A)
                 (A) (A) (A) (A) (A) (A) (A) (A) (A) (A) (A) (A)
       Virtual   (A) (A) (A) (A) (A) (A) (A) (A) (A) (A) (A) (A)
                 (A) (A) (A) (A) (A) (A) (A) (A) (A) (A) (A) (A)
                 (A) (A) (A) (A) (A) (A) (A) (A) (A) (A) (A) (A)
                 (A) (A) (A) (A) (A) (A) (A) (A) (A) (A) (A) (A)
                 (A) (A) (A) (A) (A) (A) (A) (A) (A) (A) (A) (A)
                 (A) (A) (A) (A) (A) (A) (A) (A) (A) (A) (A) (A)
                 (A) (A) (A) (A) (A) (A) (A) (A) (A) (A) (A) (A)
                 (A) (A) (A) (A) (A) (A) (A) (A) (A) (A) (A) (A)
                 (A) (A) (A) (A) (A) (A) (A) (A) (A) (A) (A) (A)
                 (A) (A) (A) (A) (A) (A) (A) (A) (A) (A) (A) (A)
                 (A) (A) (A) (A) (A) (A) (A) (A) (A) (A) (A) (A)
                 (A) (A) (A) (A) (A) (A) (A) (A) (A) (A) (A) (A)
                 (A) (A) (A) (A) (A) (A) (A) (A) (A) (A) (A) (A)
                 (A) (A) (A) (A) (A) (A) (A) (A) (A) (A) (A) (A)
                 (A) (A) (A) (A) (A) (A) (A) (A) (A) (A) (A) (A)
                 (A) (A) (A) (A) (A) (A) (A) (A) (A) (A) (A) (A)
                 (A) (A) (A) (A) (A) (A) (A) (A) (A) (A) (A) (A)
                 (A) (A) (A) (A) (A) (A) (A) (A) (A) (A) (A) (A)
                 (A) (A) (A) (A) (A) (A) (A) (A) (A) (A) (A) (A)
                 (A) (A) (A) (A) (A) (A) (A) (A) (A) (A) (A) (A)
                 (A) (A) (A) (A) (A) (A) (A) (A) (A) (A) (A) (A)
                 (A) (A) (A) (A) (A) (A) (A) (A) (A) (A) (A) (A)
                 (A) (A) (A) (A) (A) (A) (A) (A) (A) (A) (A) (A)
                 (A) (A) (A) (A) (A) (A) (A) (A) (A) (A) (A) (A)
                 (A) (A) (A) (A) (A) (A) (A) (A) (A) (A) (A) (A)
                 (A) (A) (A) (A) (A) (A) (A) (A) (A) (A) (A) (A)
                 (A) (A) (A) (A) (A) (A) (A) (A) (A) (A) (A) (A)
                 (A) (A) (A) (A) (A) (A) (A) (A) (A) (A) (A) (A)
                 (A) (A) (A) (A) (A) (A) (A) (A) (A) (A) (A) (A)
                 (A) (A) (A) (A) (A) (A) (A) (A) (A) (A) (A) (A)
                 (A) (A) (A) (A) (A) (A) (A) (A) (A) (A) (A) (A)
                 (A) (A) (A) (A) (A) (A) (A) (A) (A) (A) (A) (A)
 The electronic state is 1-A.
 Alpha  occ. eigenvalues --  -20.55944 -20.51668 -20.51127 -20.50148 -15.62067
 Alpha  occ. eigenvalues --  -15.57442 -15.57090 -15.50314 -11.39588 -11.33877
 Alpha  occ. eigenvalues --  -11.33212 -11.31900 -11.29132 -11.28067 -11.26182
 Alpha  occ. eigenvalues --  -11.24562 -11.22781 -11.22735 -11.22454 -11.22286
 Alpha  occ. eigenvalues --  -11.22189 -11.21721 -11.21649 -11.21569 -11.21345
 Alpha  occ. eigenvalues --  -11.21065 -11.20838 -11.20482  -1.48852  -1.38948
 Alpha  occ. eigenvalues --   -1.37664  -1.37126  -1.27532  -1.23108  -1.22157
 Alpha  occ. eigenvalues --   -1.19492  -1.10014  -1.09013  -1.06868  -1.04150
 Alpha  occ. eigenvalues --   -1.01991  -0.99572  -0.98402  -0.94786  -0.94281
 Alpha  occ. eigenvalues --   -0.93601  -0.91387  -0.87036  -0.85466  -0.85096
 Alpha  occ. eigenvalues --   -0.81963  -0.80121  -0.79096  -0.78812  -0.76427
 Alpha  occ. eigenvalues --   -0.72725  -0.71181  -0.70797  -0.70309  -0.67552
 Alpha  occ. eigenvalues --   -0.66826  -0.65766  -0.63909  -0.63771  -0.63287
 Alpha  occ. eigenvalues --   -0.63008  -0.61514  -0.61251  -0.60993  -0.60727
 Alpha  occ. eigenvalues --   -0.60487  -0.60299  -0.58938  -0.58866  -0.58222
 Alpha  occ. eigenvalues --   -0.57714  -0.57273  -0.56873  -0.56056  -0.55771
 Alpha  occ. eigenvalues --   -0.55584  -0.55181  -0.54481  -0.54306  -0.53769
 Alpha  occ. eigenvalues --   -0.52822  -0.52575  -0.51961  -0.51488  -0.51051
 Alpha  occ. eigenvalues --   -0.50317  -0.49848  -0.49368  -0.48371  -0.48068
 Alpha  occ. eigenvalues --   -0.47228  -0.46398  -0.45727  -0.44644  -0.43394
 Alpha  occ. eigenvalues --   -0.41052  -0.40672  -0.39363  -0.38586  -0.38395
 Alpha  occ. eigenvalues --   -0.37824  -0.34579  -0.33394
 Alpha virt. eigenvalues --    0.14583   0.18386   0.19534   0.20090   0.21203
 Alpha virt. eigenvalues --    0.22037   0.22456   0.23529   0.23764   0.24639
 Alpha virt. eigenvalues --    0.25673   0.26284   0.27098   0.27415   0.27937
 Alpha virt. eigenvalues --    0.28100   0.28498   0.28602   0.29453   0.29929
 Alpha virt. eigenvalues --    0.30498   0.31026   0.31301   0.31599   0.32004
 Alpha virt. eigenvalues --    0.32301   0.32925   0.33837   0.33989   0.34191
 Alpha virt. eigenvalues --    0.34682   0.35052   0.35464   0.35612   0.35980
 Alpha virt. eigenvalues --    0.36317   0.37045   0.38138   0.38400   0.38712
 Alpha virt. eigenvalues --    0.38806   0.39245   0.40006   0.40139   0.40680
 Alpha virt. eigenvalues --    0.41480   0.42485   0.43119   0.43500   0.44573
 Alpha virt. eigenvalues --    0.45380   0.45545   0.46278   0.46707   0.48033
 Alpha virt. eigenvalues --    0.48538   0.49035   0.49637   0.52687   0.53286
 Alpha virt. eigenvalues --    0.54797   0.56894   0.58229   0.60019   0.60161
 Alpha virt. eigenvalues --    0.62899   0.64505   0.65288   0.69963   0.70491
 Alpha virt. eigenvalues --    0.70973   0.71694   0.72278   0.72796   0.73351
 Alpha virt. eigenvalues --    0.73851   0.75431   0.75937   0.76409   0.76741
 Alpha virt. eigenvalues --    0.77088   0.77682   0.78209   0.79003   0.79571
 Alpha virt. eigenvalues --    0.80448   0.80944   0.81405   0.81475   0.83044
 Alpha virt. eigenvalues --    0.84436   0.85365   0.85736   0.86339   0.86937
 Alpha virt. eigenvalues --    0.87239   0.88537   0.88892   0.90276   0.91186
 Alpha virt. eigenvalues --    0.91885   0.92024   0.92356   0.93029   0.94069
 Alpha virt. eigenvalues --    0.94835   0.95026   0.96651   0.97501   0.97867
 Alpha virt. eigenvalues --    0.99095   0.99916   1.00668   1.00958   1.01179
 Alpha virt. eigenvalues --    1.02213   1.03051   1.03405   1.04251   1.04716
 Alpha virt. eigenvalues --    1.05177   1.05995   1.06449   1.07289   1.07970
 Alpha virt. eigenvalues --    1.08432   1.08804   1.09734   1.10789   1.11380
 Alpha virt. eigenvalues --    1.11562   1.12605   1.13608   1.14042   1.14153
 Alpha virt. eigenvalues --    1.14918   1.15327   1.15386   1.15712   1.15848
 Alpha virt. eigenvalues --    1.16763   1.16942   1.17174   1.17730   1.17905
 Alpha virt. eigenvalues --    1.18397   1.18759   1.19261   1.19501   1.19772
 Alpha virt. eigenvalues --    1.20021   1.20620   1.21229   1.21440   1.21796
 Alpha virt. eigenvalues --    1.22220   1.22490   1.22864   1.23222   1.23752
 Alpha virt. eigenvalues --    1.23961   1.24049   1.24675   1.25103   1.26532
 Alpha virt. eigenvalues --    1.26837   1.27656   1.28156   1.29532   1.29938
 Alpha virt. eigenvalues --    1.30151   1.31192   1.31460   1.31736   1.33083
 Alpha virt. eigenvalues --    1.34126   1.35905   1.36361   1.37686   1.38884
 Alpha virt. eigenvalues --    1.39294   1.41429   1.42066   1.42796   1.44953
 Alpha virt. eigenvalues --    1.45806   1.46414   1.47556   1.48499   1.49657
 Alpha virt. eigenvalues --    1.50977   1.52603   1.54456   1.54936   1.56138
 Alpha virt. eigenvalues --    1.58052   1.58831   1.59945   1.61783   1.62705
 Alpha virt. eigenvalues --    1.63622   1.66696   1.67022   1.69863   1.70795
 Alpha virt. eigenvalues --    1.71143   1.72030   1.72686   1.73956   1.74608
 Alpha virt. eigenvalues --    1.76347   1.77851   1.78855   1.79197   1.81014
 Alpha virt. eigenvalues --    1.83551   1.83751   1.86023   1.87704   1.89006
 Alpha virt. eigenvalues --    1.90065   1.90749   1.91966   1.93853   1.95011
 Alpha virt. eigenvalues --    1.96354   1.98127   1.99093   1.99785   2.00851
 Alpha virt. eigenvalues --    2.03637   2.05212   2.07154   2.07670   2.08213
 Alpha virt. eigenvalues --    2.10049   2.11264   2.12114   2.12786   2.13101
 Alpha virt. eigenvalues --    2.14174   2.14884   2.15160   2.16395   2.16779
 Alpha virt. eigenvalues --    2.17916   2.18762   2.19310   2.20072   2.21258
 Alpha virt. eigenvalues --    2.21891   2.22349   2.23609   2.24623   2.25515
 Alpha virt. eigenvalues --    2.25989   2.26695   2.27730   2.28481   2.28970
 Alpha virt. eigenvalues --    2.29725   2.31065   2.31918   2.33239   2.33373
 Alpha virt. eigenvalues --    2.34555   2.35152   2.35889   2.36170   2.37467
 Alpha virt. eigenvalues --    2.37754   2.37790   2.39461   2.39818   2.40320
 Alpha virt. eigenvalues --    2.41262   2.42280   2.42738   2.44594   2.46293
 Alpha virt. eigenvalues --    2.46567   2.47553   2.48958   2.49711   2.50529
 Alpha virt. eigenvalues --    2.50867   2.52844   2.54512   2.55428   2.56468
 Alpha virt. eigenvalues --    2.57330   2.58068   2.59747   2.60545   2.61777
 Alpha virt. eigenvalues --    2.63563   2.64127   2.64493   2.65610   2.66250
 Alpha virt. eigenvalues --    2.67591   2.68675   2.69556   2.70726   2.72373
 Alpha virt. eigenvalues --    2.73264   2.74269   2.75103   2.76226   2.76772
 Alpha virt. eigenvalues --    2.78063   2.78754   2.79943   2.80106   2.82081
 Alpha virt. eigenvalues --    2.83224   2.83805   2.85464   2.86765   2.87053
 Alpha virt. eigenvalues --    2.88669   2.91280   2.92646   2.93147   2.96303
 Alpha virt. eigenvalues --    2.97469   2.98739   3.00027   3.02611   3.03993
 Alpha virt. eigenvalues --    3.04686   3.05969   3.06699   3.07765   3.10560
 Alpha virt. eigenvalues --    3.11588   3.13629   3.14563   3.16290   3.18122
 Alpha virt. eigenvalues --    3.18660   3.19113   3.23033   3.30673   3.31063
 Alpha virt. eigenvalues --    3.34840   3.35467   3.40943   3.41293   3.42337
 Alpha virt. eigenvalues --    3.43150   3.44580   3.56167   3.56739   3.58019
 Alpha virt. eigenvalues --    3.66430   4.38892   4.41418   4.45956   4.49618
 Alpha virt. eigenvalues --    4.52298   4.54577   4.56373   4.58173   4.62257
 Alpha virt. eigenvalues --    4.64722   4.67405   4.67596   4.69320   4.70378
 Alpha virt. eigenvalues --    4.71358   4.78477   4.81924   4.84175   4.84961
 Alpha virt. eigenvalues --    4.89932   4.94251   4.95403   4.98054   5.00100
 Alpha virt. eigenvalues --    5.02662   5.09085   5.24056   5.26223
          Condensed to atoms (all electrons):
 Mulliken atomic charges:
              1
     1  C   -0.273417
     2  N   -0.828128
     3  C    0.783469
     4  O   -0.645558
     5  C    0.069962
     6  C   -0.491092
     7  C   -0.299504
     8  C   -0.316985
     9  C   -0.372747
    10  C   -0.181259
    11  C   -0.181670
    12  C   -0.351584
    13  C   -0.309897
    14  C   -0.328781
    15  C    0.090664
    16  C   -0.509637
    17  N   -0.787611
    18  C    0.767429
    19  C   -0.595551
    20  O   -0.614525
    21  C    0.820955
    22  O   -0.639990
    23  N   -0.805315
    24  C   -0.275224
    25  N   -0.795673
    26  C    0.732958
    27  C   -0.587655
    28  O   -0.608004
    29  H    0.147457
    30  H    0.183320
    31  H    0.155779
    32  H    0.485443
    33  H    0.227129
    34  H    0.160277
    35  H    0.172361
    36  H    0.160704
    37  H    0.211201
    38  H    0.161947
    39  H    0.165791
    40  H    0.215264
    41  H    0.169157
    42  H    0.197617
    43  H    0.168632
    44  H    0.175340
    45  H    0.157784
    46  H    0.148196
    47  H    0.199064
    48  H    0.172504
    49  H    0.186863
    50  H    0.183043
    51  H    0.149171
    52  H    0.225284
    53  H    0.389946
    54  H    0.210183
    55  H    0.209143
    56  H    0.176126
    57  H    0.395095
    58  H    0.164633
    59  H    0.200198
    60  H    0.183531
    61  H    0.396387
    62  H    0.224994
    63  H    0.196134
    64  H    0.208671
 Sum of Mulliken atomic charges =   0.00000
 Mulliken charges with hydrogens summed into heavy atoms:
              1
     1  C    0.213139
     2  N   -0.342685
     3  C    0.783469
     4  O   -0.645558
     5  C    0.069962
     6  C    0.068675
     7  C    0.072401
     8  C    0.010753
     9  C    0.011673
    10  C    0.016358
    11  C   -0.013038
    12  C   -0.018460
    13  C    0.037364
    14  C    0.030586
    15  C    0.090664
    16  C    0.047861
    17  N   -0.397665
    18  C    0.767429
    19  C   -0.000099
    20  O   -0.614525
    21  C    0.820955
    22  O   -0.639990
    23  N   -0.410220
    24  C    0.273139
    25  N   -0.399286
    26  C    0.732958
    27  C    0.042145
    28  O   -0.608004
 Sum of Mulliken charges with hydrogens summed into heavy atoms =   0.00000
 Electronic spatial extent (au):  <R**2>=          20699.9927
 Charge=              0.0000 electrons
 Dipole moment (field-independent basis, Debye):
    X=             -7.8021    Y=             -2.9595    Z=              4.2787  Tot=              9.3776
 Quadrupole moment (field-independent basis, Debye-Ang):
   XX=           -141.3374   YY=           -157.8586   ZZ=           -180.4661
   XY=              2.0183   XZ=             -6.1906   YZ=              8.3618
 Traceless Quadrupole moment (field-independent basis, Debye-Ang):
   XX=             18.5500   YY=              2.0288   ZZ=            -20.5787
   XY=              2.0183   XZ=             -6.1906   YZ=              8.3618
 Octapole moment (field-independent basis, Debye-Ang**2):
  XXX=           -742.8269  YYY=             43.9276  ZZZ=             24.3273  XYY=             65.7522
  XXY=           -127.4206  XXZ=            101.6444  XZZ=              8.8946  YZZ=             -6.2880
  YYZ=             -2.0301  XYZ=            -10.9316
 Hexadecapole moment (field-independent basis, Debye-Ang**3):
 XXXX=         -21362.2161 YYYY=          -2293.4476 ZZZZ=          -1685.9941 XXXY=           -454.9100
 XXXZ=           -652.7673 YYYX=             74.2139 YYYZ=             -3.0112 ZZZX=           -111.2606
 ZZZY=             26.4330 XXYY=          -3889.5692 XXZZ=          -4168.5255 YYZZ=           -676.4493
 XXYZ=            188.3553 YYXZ=            -54.4619 ZZXY=             69.8653
 N-N= 2.723674874710D+03 E-N=-8.480525030960D+03  KE= 1.294792786078D+03
 1\1\GINC-MOSURA\SP\RHF\6-31G(d)\C20H36N4O4\MARIE\05-Dec-2019\0\\#SP HF
 /6-31G* Geom=(ModRedundant)\\paramfit run\\0,1\C,0,0.,0.,0.\N,0,1.4481
 87,0.,0.\C,0,2.1232,0.47592,1.072365\O,0,1.590179,0.696732,2.124447\C,
 0,3.650505,0.594143,0.921539\C,0,4.198902,1.549248,1.986845\C,0,4.3077
 51,-0.809116,1.023981\C,0,4.133566,-1.622781,2.319066\C,0,2.832729,-2.
 433298,2.484965\C,0,2.579342,-3.423586,1.372579\C,0,2.834093,-4.721989
 ,1.375535\C,0,3.442731,-5.535663,2.492337\C,0,2.42774,-6.370218,3.2941
 33\C,0,1.693892,-7.402618,2.427801\C,0,0.774274,-8.428536,3.139447\C,0
 ,0.118887,-9.296969,2.053288\N,0,1.59533,-9.267679,4.001559\C,0,1.0367
 79,-10.167772,4.862321\C,0,1.96438,-10.678762,5.940862\O,0,-0.103289,-
 10.530888,4.775526\C,0,-0.228361,-7.657085,4.027316\O,0,0.090004,-7.29
 6707,5.128542\N,0,-1.416619,-7.323616,3.478843\C,0,-2.421442,-6.64525,
 4.271531\N,0,3.997412,1.070275,-0.425452\C,0,3.362327,0.659569,-1.5602
 03\C,0,3.615934,1.514795,-2.784292\O,0,2.663499,-0.313389,-1.59384\H,0
 ,-0.403259,1.006147,0.\H,0,-0.36496,-0.516002,0.875939\H,0,-0.345658,-
 0.522086,-0.883346\H,0,1.904244,0.070913,-0.879357\H,0,3.932135,1.2217
 6,2.980082\H,0,5.28092,1.595925,1.9075\H,0,3.792711,2.540594,1.848395\
 H,0,5.374584,-0.64325,0.891407\H,0,3.984642,-1.403324,0.174983\H,0,4.9
 61565,-2.324757,2.354635\H,0,4.250121,-0.975721,3.182259\H,0,1.985724,
 -1.764045,2.562723\H,0,2.895638,-2.94811,3.437249\H,0,2.135502,-3.0091
 81,0.481856\H,0,2.579482,-5.276386,0.485828\H,0,3.971519,-4.889909,3.1
 82881\H,0,4.191817,-6.202016,2.066382\H,0,2.965623,-6.85691,4.102952\H
 ,0,1.714584,-5.707921,3.766998\H,0,2.42081,-7.979938,1.860503\H,0,1.08
 3167,-6.875737,1.704087\H,0,0.891187,-9.872528,1.556434\H,0,-0.36551,-
 8.684705,1.299714\H,0,-0.597925,-9.98679,2.472891\H,0,2.435807,-8.8478
 4,4.327205\H,0,1.585188,-11.616367,6.31792\H,0,1.981002,-9.957975,6.75
 2844\H,0,2.97817,-10.810647,5.57862\H,0,-1.730263,-7.831365,2.685667\H
 ,0,-3.24021,-6.362494,3.623002\H,0,-1.998054,-5.755067,4.713054\H,0,-2
 .799425,-7.276973,5.068907\H,0,4.442678,1.960065,-0.464921\H,0,3.41626
 2,0.926992,-3.668368\H,0,4.63173,1.892378,-2.818049\H,0,2.938773,2.362
 805,-2.7728\\Version=EM64L-G09RevA.02\State=1-A\HF=-1295.5007826\RMSD=
 7.388e-09\Dipole=2.007931,1.7915805,-2.5239385\Quadrupole=1.9329334,3.
 1816054,-5.1145388,6.9952141,3.799054,-13.8560612\PG=C01 [X(C20H36N4O4
 )]\\@


 THE SOLUTION TO A PROBLEM CHANGES THE PROBLEM.

                                 -- JOHN PEERS
           PAUL DICKSON'S "THE OFFICIAL RULES"
 Job cpu time:  0 days  0 hours  5 minutes 33.8 seconds.
 File lengths (MBytes):  RWF=    132 Int=      0 D2E=      0 Chk=     10 Scr=      1
 Normal termination of Gaussian 09 at Thu Dec  5 16:10:55 2019.
