 Entering Gaussian System, Link 0=g09
 Input=PHI_10.gau
 Output=PHI_10.log
 Initial command:
 /home/marie/Utilities//g09/l1.exe /tmp/g09/Gau-4537.inp -scrdir=/tmp/g09/
 Entering Link 1 = /home/marie/Utilities//g09/l1.exe PID=      4539.
  
 Copyright (c) 1988,1990,1992,1993,1995,1998,2003,2009, Gaussian, Inc.
                  All Rights Reserved.
  
 This is part of the Gaussian(R) 09 program.  It is based on
 the Gaussian(R) 03 system (copyright 2003, Gaussian, Inc.),
 the Gaussian(R) 98 system (copyright 1998, Gaussian, Inc.),
 the Gaussian(R) 94 system (copyright 1995, Gaussian, Inc.),
 the Gaussian 92(TM) system (copyright 1992, Gaussian, Inc.),
 the Gaussian 90(TM) system (copyright 1990, Gaussian, Inc.),
 the Gaussian 88(TM) system (copyright 1988, Gaussian, Inc.),
 the Gaussian 86(TM) system (copyright 1986, Carnegie Mellon
 University), and the Gaussian 82(TM) system (copyright 1983,
 Carnegie Mellon University). Gaussian is a federally registered
 trademark of Gaussian, Inc.
  
 This software contains proprietary and confidential information,
 including trade secrets, belonging to Gaussian, Inc.
  
 This software is provided under written license and may be
 used, copied, transmitted, or stored only in accord with that
 written license.
  
 The following legend is applicable only to US Government
 contracts under FAR:
  
                    RESTRICTED RIGHTS LEGEND
  
 Use, reproduction and disclosure by the US Government is
 subject to restrictions as set forth in subparagraphs (a)
 and (c) of the Commercial Computer Software - Restricted
 Rights clause in FAR 52.227-19.
  
 Gaussian, Inc.
 340 Quinnipiac St., Bldg. 40, Wallingford CT 06492
  
  
 ---------------------------------------------------------------
 Warning -- This program may not be used in any manner that
 competes with the business of Gaussian, Inc. or will provide
 assistance to any competitor of Gaussian, Inc.  The licensee
 of this program is prohibited from giving any competitor of
 Gaussian, Inc. access to this program.  By using this program,
 the user acknowledges that Gaussian, Inc. is engaged in the
 business of creating and licensing software in the field of
 computational chemistry and represents and warrants to the
 licensee that it is not a competitor of Gaussian, Inc. and that
 it will not use this program in any manner prohibited above.
 ---------------------------------------------------------------
  

 Cite this work as:
 Gaussian 09, Revision A.02,
 M. J. Frisch, G. W. Trucks, H. B. Schlegel, G. E. Scuseria, 
 M. A. Robb, J. R. Cheeseman, G. Scalmani, V. Barone, B. Mennucci, 
 G. A. Petersson, H. Nakatsuji, M. Caricato, X. Li, H. P. Hratchian, 
 A. F. Izmaylov, J. Bloino, G. Zheng, J. L. Sonnenberg, M. Hada, 
 M. Ehara, K. Toyota, R. Fukuda, J. Hasegawa, M. Ishida, T. Nakajima, 
 Y. Honda, O. Kitao, H. Nakai, T. Vreven, J. A. Montgomery, Jr., 
 J. E. Peralta, F. Ogliaro, M. Bearpark, J. J. Heyd, E. Brothers, 
 K. N. Kudin, V. N. Staroverov, R. Kobayashi, J. Normand, 
 K. Raghavachari, A. Rendell, J. C. Burant, S. S. Iyengar, J. Tomasi, 
 M. Cossi, N. Rega, J. M. Millam, M. Klene, J. E. Knox, J. B. Cross, 
 V. Bakken, C. Adamo, J. Jaramillo, R. Gomperts, R. E. Stratmann, 
 O. Yazyev, A. J. Austin, R. Cammi, C. Pomelli, J. W. Ochterski, 
 R. L. Martin, K. Morokuma, V. G. Zakrzewski, G. A. Voth, 
 P. Salvador, J. J. Dannenberg, S. Dapprich, A. D. Daniels, 
 O. Farkas, J. B. Foresman, J. V. Ortiz, J. Cioslowski, 
 and D. J. Fox, Gaussian, Inc., Wallingford CT, 2009.
 
 ******************************************
 Gaussian 09:  EM64L-G09RevA.02 11-Jun-2009
                 5-Dec-2019 
 ******************************************
 %chk=PHI_10
 %NoSave
 ---------------------------------
 #SP HF/6-31G* Geom=(ModRedundant)
 ---------------------------------
 1/18=120,38=1/1;
 2/12=2,17=6,18=5,40=1/2;
 3/5=1,6=6,7=1,11=9,16=1,25=1,30=1/1,2,3;
 4//1;
 5/5=2,38=5/2;
 6/7=2,8=2,9=2,10=2,28=1/1;
 99/5=1,9=1/99;
 ------------
 paramfit run
 ------------
 Symbolic Z-matrix:
 Charge =  0 Multiplicity = 1
 C-CT--0.3208          0.        0.        0. 
 N-N--0.5622           1.44819   0.        0. 
 C-C-0.8053            2.1232    0.47592   1.07237 
 O-O--0.6151           1.59018   0.69673   2.12445 
 C-CX-0.0839           3.65051   0.59414   0.92154 
 C-CU--0.3230          4.1989    1.54925   1.98685 
 C-CU--0.0657          4.30775  -0.80912   1.02398 
 C-CU--0.0109          4.13357  -1.62278   2.31907 
 C-CU-0.0816           2.83273  -2.4333    2.48497 
 C-CM--0.2354          2.57934  -3.42359   1.37258 
 C-CM--0.2653          2.83409  -4.72199   1.37554 
 C-CU-0.1214           3.44273  -5.53566   2.49234 
 C-CU--0.0354          2.42774  -6.37022   3.29413 
 C-CU--0.0984          1.69389  -7.40262   2.4278 
 C-CU-0.1300           0.77427  -8.42854   3.13945 
 C-CU--0.3561          0.11889  -9.29697   2.05329 
 N-N--0.7186           1.59533  -9.26768   4.00156 
 C-C-0.8537            1.03678  -10.16777   4.86232 
 C-CT--0.3868          1.96438  -10.67876   5.94086 
 O-O--0.6323          -0.10329  -10.53089   4.77553 
 C-C-0.7903           -0.22836  -7.65709   4.02732 
 O-O--0.6136           0.09     -7.29671   5.12854 
 N-N--0.5650          -1.41662  -7.32362   3.47884 
 C-CT--0.3231         -2.42144  -6.64525   4.27153 
 N-N--0.7191           3.99741   1.07028  -0.42545 
 C-C-0.8539            3.0832    1.54468  -1.31922 
 C-CT--0.3903          3.6657    2.30639  -2.49166 
 O-O--0.6290           1.90492   1.36387  -1.19633 
 H-H1-0.1459          -0.40326   1.00615   0. 
 H-H1-0.1459          -0.36496  -0.516     0.87594 
 H-H1-0.1459          -0.34566  -0.52209  -0.88335 
 H-H-0.3572            1.90424   0.07091  -0.87936 
 H-HC-0.0997           3.93214   1.22176   2.98008 
 H-HC-0.0997           5.28092   1.59593   1.9075 
 H-HC-0.0997           3.79271   2.54059   1.8484 
 H-HC-0.0347           5.37458  -0.64325   0.89141 
 H-HC-0.0347           3.98464  -1.40332   0.17498 
 H-HC-0.0243           4.96157  -2.32476   2.35464 
 H-HC-0.0243           4.25012  -0.97572   3.18226 
 H-HC-0.0171           1.98572  -1.76405   2.56272 
 H-HC-0.0171           2.89564  -2.94811   3.43725 
 H-HA-0.1313           2.1355   -3.00918   0.48186 
 H-HA-0.1359           2.57948  -5.27639   0.48583 
 H-HC-0.0092           3.97152  -4.88991   3.18288 
 H-HC-0.0092           4.19182  -6.20202   2.06638 
 H-HC-0.0318           2.96562  -6.85691   4.10295 
 H-HC-0.0318           1.71458  -5.70792   3.767 
 H-HC-0.0435           2.42081  -7.97994   1.8605 
 H-HC-0.0435           1.08317  -6.87574   1.70409 
 H-HC-0.1066           0.89119  -9.87253   1.55643 
 H-HC-0.1066          -0.36551  -8.68471   1.29971 
 H-HC-0.1066          -0.59793  -9.98679   2.47289 
 H-H-0.3529            2.43581  -8.84784   4.32721 
 H-HC-0.1047           1.58519  -11.61637   6.31792 
 H-HC-0.1047           1.981    -9.95798   6.75284 
 H-HC-0.1047           2.97817  -10.81065   5.57862 
 H-H-0.3615           -1.73026  -7.83136   2.68567 
 H-H1-0.1469          -3.24021  -6.36249   3.623 
 H-H1-0.1469          -1.99805  -5.75507   4.71305 
 H-H1-0.1469          -2.79943  -7.27697   5.06891 
 H-H-0.3570            4.93453   1.38652  -0.54099 
 H-HC-0.1060           2.95372   2.29473  -3.30403 
 H-HC-0.1060           4.60839   1.88771  -2.82571 
 H-HC-0.1060           3.83725   3.33674  -2.19714 
 
 The following ModRedundant input section has been read:
 D    *    5   25    * F                                                       
 Stoichiometry    C20H36N4O4
 Framework group  C1[X(C20H36N4O4)]
 Deg. of freedom   186
 Full point group                 C1      NOp   1
 Largest Abelian subgroup         C1      NOp   1
 Largest concise Abelian subgroup C1      NOp   1
                         Standard orientation:                         
 ---------------------------------------------------------------------
 Center     Atomic      Atomic             Coordinates (Angstroms)
 Number     Number       Type             X           Y           Z
 ---------------------------------------------------------------------
      1          6    20001001        3.909589    2.800416   -0.107573
      2          7    20001014        4.234740    1.396812   -0.253922
      3          6    20001002        4.402079    0.624539    0.845032
      4          8    20001024        4.077360    0.984836    1.942525
      5          6    90000001        4.908690   -0.808670    0.602867
      6          6    90000002        5.479684   -1.378063    1.905786
      7          6    90000002        3.759615   -1.695404    0.050660
      8          6    90000002        2.495445   -1.897659    0.905414
      9          6    90000002        1.413569   -0.800651    0.852918
     10          6    20001004        0.895315   -0.514356   -0.536947
     11          6    20001004       -0.212072   -0.975510   -1.095326
     12          6    90000002       -1.232213   -1.903843   -0.481109
     13          6    90000002       -2.514972   -1.204283    0.003360
     14          6    90000002       -3.273065   -0.504307   -1.132528
     15          6    90000002       -4.671361    0.087828   -0.818217
     16          6    90000002       -5.180727    0.779001   -2.093472
     17          7    20001014       -5.569095   -1.003937   -0.466571
     18          6    20001002       -6.830681   -0.768351   -0.001859
     19          6    20001001       -7.493330   -1.949002    0.670274
     20          8    20001024       -7.378789    0.292748   -0.114942
     21          6    20001002       -4.545223    1.023982    0.405069
     22          8    20001024       -4.572546    0.573076    1.518561
     23          7    20001014       -4.303162    2.330982    0.166029
     24          6    20001001       -4.224476    3.271365    1.264979
     25          7    20001014        5.929067   -0.819869   -0.455498
     26          6    20001002        6.491183    0.307950   -0.976769
     27          6    20001001        7.753502    0.083453   -1.783162
     28          8    20001024        6.017549    1.397693   -0.820974
     29          1    20001035        4.720621    3.356862    0.347998
     30          1    20001035        3.029827    2.908809    0.509672
     31          1    20001035        3.702444    3.211261   -1.087701
     32          1    20001029        4.737437    1.127495   -1.066972
     33          1    20001034        4.745969   -1.355292    2.697036
     34          1    20001034        5.794834   -2.404558    1.743844
     35          1    20001034        6.329816   -0.795858    2.230194
     36          1    20001034        4.198541   -2.677817   -0.108803
     37          1    20001034        3.479753   -1.324574   -0.930381
     38          1    20001034        2.038713   -2.822219    0.564530
     39          1    20001034        2.770854   -2.062195    1.941971
     40          1    20001034        1.793313    0.116192    1.284841
     41          1    20001034        0.601703   -1.120739    1.496541
     42          1    20001033        1.508107    0.147137   -1.127731
     43          1    20001033       -0.425292   -0.657062   -2.103736
     44          1    20001034       -0.799301   -2.436520    0.356929
     45          1    20001034       -1.497998   -2.661542   -1.217210
     46          1    20001034       -3.140057   -1.953824    0.480679
     47          1    20001034       -2.262720   -0.490666    0.776632
     48          1    20001034       -3.409919   -1.199983   -1.957658
     49          1    20001034       -2.660914    0.306863   -1.508860
     50          1    20001034       -5.332791    0.026729   -2.858680
     51          1    20001034       -4.452269    1.487253   -2.474404
     52          1    20001034       -6.120483    1.283370   -1.925514
     53          1    20001029       -5.128895   -1.809071   -0.083563
     54          1    20001034       -8.563020   -1.804851    0.663435
     55          1    20001034       -7.154683   -1.995169    1.700959
     56          1    20001034       -7.245164   -2.886955    0.185464
     57          1    20001029       -4.524804    2.696646   -0.729780
     58          1    20001035       -3.906580    4.230225    0.877097
     59          1    20001035       -3.500840    2.926675    1.988971
     60          1    20001035       -5.180769    3.387721    1.764697
     61          1    20001029        6.467090   -1.654930   -0.524425
     62          1    20001034        7.894305    0.920351   -2.451556
     63          1    20001034        7.717920   -0.837958   -2.353500
     64          1    20001034        8.602491    0.032832   -1.109027
 ---------------------------------------------------------------------
 Rotational constants (GHZ):      0.3953460      0.0512314      0.0493180
 Standard basis: 6-31G(d) (6D, 7F)
 There are   492 symmetry adapted basis functions of A   symmetry.
 Integral buffers will be    131072 words long.
 Raffenetti 1 integral format.
 Two-electron integral symmetry is turned on.
   492 basis functions,   928 primitive gaussians,   492 cartesian basis functions
   108 alpha electrons      108 beta electrons
       nuclear repulsion energy      2711.9144695178 Hartrees.
 NAtoms=   64 NActive=   64 NUniq=   64 SFac= 7.50D-01 NAtFMM=   80 NAOKFM=F Big=T
 One-electron integrals computed using PRISM.
 NBasis=   492 RedAO= T  NBF=   492
 NBsUse=   492 1.00D-06 NBFU=   492
 Harris functional with IExCor=  205 diagonalized for initial guess.
 ExpMin= 1.61D-01 ExpMax= 5.48D+03 ExpMxC= 8.25D+02 IAcc=1 IRadAn=         1 AccDes= 0.00D+00
 HarFok:  IExCor=  205 AccDes= 0.00D+00 IRadAn=         1 IDoV= 1
 ScaDFX=  1.000000  1.000000  1.000000  1.000000
 FoFCou: FMM=F IPFlag=           0 FMFlag=      100000 FMFlg1=           1
         NFxFlg=           0 DoJE=T BraDBF=F KetDBF=T FulRan=T
         Omega=  0.000000  0.000000  1.000000  0.000000  0.000000 ICntrl=     500 IOpCl=  0
         NMat0=    1 NMatS0=    1 NMatT0=    0 NMatD0=    1 NMtDS0=    0 NMtDT0=    0
         I1Cent=           4 NGrid=           0.
 Petite list used in FoFCou.
 Initial guess orbital symmetries:
       Occupied  (A) (A) (A) (A) (A) (A) (A) (A) (A) (A) (A) (A)
                 (A) (A) (A) (A) (A) (A) (A) (A) (A) (A) (A) (A)
                 (A) (A) (A) (A) (A) (A) (A) (A) (A) (A) (A) (A)
                 (A) (A) (A) (A) (A) (A) (A) (A) (A) (A) (A) (A)
                 (A) (A) (A) (A) (A) (A) (A) (A) (A) (A) (A) (A)
                 (A) (A) (A) (A) (A) (A) (A) (A) (A) (A) (A) (A)
                 (A) (A) (A) (A) (A) (A) (A) (A) (A) (A) (A) (A)
                 (A) (A) (A) (A) (A) (A) (A) (A) (A) (A) (A) (A)
                 (A) (A) (A) (A) (A) (A) (A) (A) (A) (A) (A) (A)
       Virtual   (A) (A) (A) (A) (A) (A) (A) (A) (A) (A) (A) (A)
                 (A) (A) (A) (A) (A) (A) (A) (A) (A) (A) (A) (A)
                 (A) (A) (A) (A) (A) (A) (A) (A) (A) (A) (A) (A)
                 (A) (A) (A) (A) (A) (A) (A) (A) (A) (A) (A) (A)
                 (A) (A) (A) (A) (A) (A) (A) (A) (A) (A) (A) (A)
                 (A) (A) (A) (A) (A) (A) (A) (A) (A) (A) (A) (A)
                 (A) (A) (A) (A) (A) (A) (A) (A) (A) (A) (A) (A)
                 (A) (A) (A) (A) (A) (A) (A) (A) (A) (A) (A) (A)
                 (A) (A) (A) (A) (A) (A) (A) (A) (A) (A) (A) (A)
                 (A) (A) (A) (A) (A) (A) (A) (A) (A) (A) (A) (A)
                 (A) (A) (A) (A) (A) (A) (A) (A) (A) (A) (A) (A)
                 (A) (A) (A) (A) (A) (A) (A) (A) (A) (A) (A) (A)
                 (A) (A) (A) (A) (A) (A) (A) (A) (A) (A) (A) (A)
                 (A) (A) (A) (A) (A) (A) (A) (A) (A) (A) (A) (A)
                 (A) (A) (A) (A) (A) (A) (A) (A) (A) (A) (A) (A)
                 (A) (A) (A) (A) (A) (A) (A) (A) (A) (A) (A) (A)
                 (A) (A) (A) (A) (A) (A) (A) (A) (A) (A) (A) (A)
                 (A) (A) (A) (A) (A) (A) (A) (A) (A) (A) (A) (A)
                 (A) (A) (A) (A) (A) (A) (A) (A) (A) (A) (A) (A)
                 (A) (A) (A) (A) (A) (A) (A) (A) (A) (A) (A) (A)
                 (A) (A) (A) (A) (A) (A) (A) (A) (A) (A) (A) (A)
                 (A) (A) (A) (A) (A) (A) (A) (A) (A) (A) (A) (A)
                 (A) (A) (A) (A) (A) (A) (A) (A) (A) (A) (A) (A)
                 (A) (A) (A) (A) (A) (A) (A) (A) (A) (A) (A) (A)
                 (A) (A) (A) (A) (A) (A) (A) (A) (A) (A) (A) (A)
                 (A) (A) (A) (A) (A) (A) (A) (A) (A) (A) (A) (A)
                 (A) (A) (A) (A) (A) (A) (A) (A) (A) (A) (A) (A)
                 (A) (A) (A) (A) (A) (A) (A) (A) (A) (A) (A) (A)
                 (A) (A) (A) (A) (A) (A) (A) (A) (A) (A) (A) (A)
                 (A) (A) (A) (A) (A) (A) (A) (A) (A) (A) (A) (A)
                 (A) (A) (A) (A) (A) (A) (A) (A) (A) (A) (A) (A)
                 (A) (A) (A) (A) (A) (A) (A) (A) (A) (A) (A) (A)
 The electronic state of the initial guess is 1-A.
 Requested convergence on RMS density matrix=1.00D-08 within 128 cycles.
 Requested convergence on MAX density matrix=1.00D-06.
 Requested convergence on             energy=1.00D-06.
 No special actions if energy rises.
 Integral accuracy reduced to 1.0D-05 until final iterations.
 Initial convergence to 1.0D-05 achieved.  Increase integral accuracy.
 SCF Done:  E(RHF) =  -1295.47548090     A.U. after   16 cycles
             Convg  =    0.4187D-08             -V/T =  2.0006

 **********************************************************************

            Population analysis using the SCF density.

 **********************************************************************

 Orbital symmetries:
       Occupied  (A) (A) (A) (A) (A) (A) (A) (A) (A) (A) (A) (A)
                 (A) (A) (A) (A) (A) (A) (A) (A) (A) (A) (A) (A)
                 (A) (A) (A) (A) (A) (A) (A) (A) (A) (A) (A) (A)
                 (A) (A) (A) (A) (A) (A) (A) (A) (A) (A) (A) (A)
                 (A) (A) (A) (A) (A) (A) (A) (A) (A) (A) (A) (A)
                 (A) (A) (A) (A) (A) (A) (A) (A) (A) (A) (A) (A)
                 (A) (A) (A) (A) (A) (A) (A) (A) (A) (A) (A) (A)
                 (A) (A) (A) (A) (A) (A) (A) (A) (A) (A) (A) (A)
                 (A) (A) (A) (A) (A) (A) (A) (A) (A) (A) (A) (A)
       Virtual   (A) (A) (A) (A) (A) (A) (A) (A) (A) (A) (A) (A)
                 (A) (A) (A) (A) (A) (A) (A) (A) (A) (A) (A) (A)
                 (A) (A) (A) (A) (A) (A) (A) (A) (A) (A) (A) (A)
                 (A) (A) (A) (A) (A) (A) (A) (A) (A) (A) (A) (A)
                 (A) (A) (A) (A) (A) (A) (A) (A) (A) (A) (A) (A)
                 (A) (A) (A) (A) (A) (A) (A) (A) (A) (A) (A) (A)
                 (A) (A) (A) (A) (A) (A) (A) (A) (A) (A) (A) (A)
                 (A) (A) (A) (A) (A) (A) (A) (A) (A) (A) (A) (A)
                 (A) (A) (A) (A) (A) (A) (A) (A) (A) (A) (A) (A)
                 (A) (A) (A) (A) (A) (A) (A) (A) (A) (A) (A) (A)
                 (A) (A) (A) (A) (A) (A) (A) (A) (A) (A) (A) (A)
                 (A) (A) (A) (A) (A) (A) (A) (A) (A) (A) (A) (A)
                 (A) (A) (A) (A) (A) (A) (A) (A) (A) (A) (A) (A)
                 (A) (A) (A) (A) (A) (A) (A) (A) (A) (A) (A) (A)
                 (A) (A) (A) (A) (A) (A) (A) (A) (A) (A) (A) (A)
                 (A) (A) (A) (A) (A) (A) (A) (A) (A) (A) (A) (A)
                 (A) (A) (A) (A) (A) (A) (A) (A) (A) (A) (A) (A)
                 (A) (A) (A) (A) (A) (A) (A) (A) (A) (A) (A) (A)
                 (A) (A) (A) (A) (A) (A) (A) (A) (A) (A) (A) (A)
                 (A) (A) (A) (A) (A) (A) (A) (A) (A) (A) (A) (A)
                 (A) (A) (A) (A) (A) (A) (A) (A) (A) (A) (A) (A)
                 (A) (A) (A) (A) (A) (A) (A) (A) (A) (A) (A) (A)
                 (A) (A) (A) (A) (A) (A) (A) (A) (A) (A) (A) (A)
                 (A) (A) (A) (A) (A) (A) (A) (A) (A) (A) (A) (A)
                 (A) (A) (A) (A) (A) (A) (A) (A) (A) (A) (A) (A)
                 (A) (A) (A) (A) (A) (A) (A) (A) (A) (A) (A) (A)
                 (A) (A) (A) (A) (A) (A) (A) (A) (A) (A) (A) (A)
                 (A) (A) (A) (A) (A) (A) (A) (A) (A) (A) (A) (A)
                 (A) (A) (A) (A) (A) (A) (A) (A) (A) (A) (A) (A)
                 (A) (A) (A) (A) (A) (A) (A) (A) (A) (A) (A) (A)
                 (A) (A) (A) (A) (A) (A) (A) (A) (A) (A) (A) (A)
                 (A) (A) (A) (A) (A) (A) (A) (A) (A) (A) (A) (A)
 The electronic state is 1-A.
 Alpha  occ. eigenvalues --  -20.53594 -20.51806 -20.51283 -20.50284 -15.60981
 Alpha  occ. eigenvalues --  -15.57591 -15.57248 -15.52268 -11.37903 -11.34015
 Alpha  occ. eigenvalues --  -11.33370 -11.32161 -11.29066 -11.28248 -11.25117
 Alpha  occ. eigenvalues --  -11.24683 -11.23029 -11.23012 -11.22863 -11.22310
 Alpha  occ. eigenvalues --  -11.22147 -11.22039 -11.21962 -11.21914 -11.21514
 Alpha  occ. eigenvalues --  -11.21514 -11.21297 -11.20836  -1.45707  -1.39094
 Alpha  occ. eigenvalues --   -1.37811  -1.37134  -1.26562  -1.23268  -1.22304
 Alpha  occ. eigenvalues --   -1.20162  -1.10223  -1.08986  -1.06927  -1.04055
 Alpha  occ. eigenvalues --   -1.01490  -0.99527  -0.98531  -0.94865  -0.94399
 Alpha  occ. eigenvalues --   -0.93886  -0.91631  -0.86987  -0.85445  -0.84193
 Alpha  occ. eigenvalues --   -0.81885  -0.79348  -0.79064  -0.78908  -0.76579
 Alpha  occ. eigenvalues --   -0.71560  -0.71200  -0.70832  -0.69622  -0.67700
 Alpha  occ. eigenvalues --   -0.66160  -0.65551  -0.64472  -0.64042  -0.63365
 Alpha  occ. eigenvalues --   -0.62408  -0.61822  -0.61444  -0.61147  -0.60814
 Alpha  occ. eigenvalues --   -0.60446  -0.59659  -0.58979  -0.58757  -0.58361
 Alpha  occ. eigenvalues --   -0.57848  -0.57167  -0.56852  -0.56205  -0.55952
 Alpha  occ. eigenvalues --   -0.55440  -0.55223  -0.54568  -0.54450  -0.53402
 Alpha  occ. eigenvalues --   -0.52767  -0.52278  -0.52019  -0.51607  -0.51259
 Alpha  occ. eigenvalues --   -0.50507  -0.49873  -0.49521  -0.48471  -0.48322
 Alpha  occ. eigenvalues --   -0.47720  -0.47223  -0.45984  -0.43849  -0.43537
 Alpha  occ. eigenvalues --   -0.41578  -0.41210  -0.40813  -0.38921  -0.38547
 Alpha  occ. eigenvalues --   -0.37977  -0.33829  -0.30235
 Alpha virt. eigenvalues --    0.16679   0.17953   0.19460   0.19937   0.21056
 Alpha virt. eigenvalues --    0.21880   0.22289   0.23524   0.23672   0.25139
 Alpha virt. eigenvalues --    0.25260   0.26076   0.26762   0.27519   0.27870
 Alpha virt. eigenvalues --    0.28260   0.28343   0.28854   0.29305   0.29814
 Alpha virt. eigenvalues --    0.30188   0.30963   0.31327   0.31616   0.31849
 Alpha virt. eigenvalues --    0.32176   0.32721   0.32842   0.33797   0.34010
 Alpha virt. eigenvalues --    0.34555   0.34899   0.35186   0.35345   0.35824
 Alpha virt. eigenvalues --    0.36187   0.36715   0.36917   0.37651   0.38125
 Alpha virt. eigenvalues --    0.38639   0.38916   0.39774   0.40097   0.40773
 Alpha virt. eigenvalues --    0.40999   0.41379   0.42460   0.43024   0.44317
 Alpha virt. eigenvalues --    0.44998   0.45210   0.45869   0.46196   0.46476
 Alpha virt. eigenvalues --    0.47652   0.48002   0.49428   0.52521   0.54236
 Alpha virt. eigenvalues --    0.54643   0.56030   0.57420   0.58060   0.59996
 Alpha virt. eigenvalues --    0.62640   0.64624   0.65141   0.69617   0.70635
 Alpha virt. eigenvalues --    0.71220   0.71807   0.72677   0.73014   0.73199
 Alpha virt. eigenvalues --    0.73554   0.75056   0.75542   0.75880   0.76331
 Alpha virt. eigenvalues --    0.76706   0.77087   0.78332   0.78633   0.78966
 Alpha virt. eigenvalues --    0.79468   0.80355   0.80923   0.81625   0.83134
 Alpha virt. eigenvalues --    0.83896   0.84392   0.85418   0.86215   0.87033
 Alpha virt. eigenvalues --    0.88271   0.88541   0.89136   0.89370   0.90616
 Alpha virt. eigenvalues --    0.91137   0.91702   0.92696   0.93142   0.93306
 Alpha virt. eigenvalues --    0.94515   0.95140   0.96511   0.97400   0.97539
 Alpha virt. eigenvalues --    0.98115   0.99685   1.00212   1.00681   1.00938
 Alpha virt. eigenvalues --    1.02161   1.02516   1.02889   1.03298   1.04368
 Alpha virt. eigenvalues --    1.04901   1.05530   1.06256   1.06927   1.07818
 Alpha virt. eigenvalues --    1.08209   1.08767   1.10565   1.10881   1.11611
 Alpha virt. eigenvalues --    1.12273   1.13268   1.13521   1.13892   1.14774
 Alpha virt. eigenvalues --    1.15147   1.15482   1.15783   1.15914   1.16558
 Alpha virt. eigenvalues --    1.16828   1.17251   1.17621   1.17974   1.18520
 Alpha virt. eigenvalues --    1.18618   1.18923   1.19263   1.19408   1.19864
 Alpha virt. eigenvalues --    1.20372   1.20984   1.21470   1.21662   1.22031
 Alpha virt. eigenvalues --    1.22346   1.22514   1.22792   1.23526   1.23579
 Alpha virt. eigenvalues --    1.24011   1.24274   1.25201   1.25958   1.26522
 Alpha virt. eigenvalues --    1.27267   1.27732   1.28058   1.29113   1.29808
 Alpha virt. eigenvalues --    1.30492   1.30995   1.31605   1.32038   1.33263
 Alpha virt. eigenvalues --    1.34785   1.35861   1.36249   1.37502   1.38595
 Alpha virt. eigenvalues --    1.39116   1.41227   1.42273   1.42884   1.43956
 Alpha virt. eigenvalues --    1.45402   1.46086   1.47842   1.48330   1.48960
 Alpha virt. eigenvalues --    1.49503   1.50792   1.52511   1.54667   1.55204
 Alpha virt. eigenvalues --    1.57435   1.58380   1.60011   1.61397   1.62916
 Alpha virt. eigenvalues --    1.64262   1.66212   1.67176   1.69877   1.71199
 Alpha virt. eigenvalues --    1.71738   1.72621   1.73199   1.73882   1.75193
 Alpha virt. eigenvalues --    1.78200   1.79272   1.80123   1.80529   1.81062
 Alpha virt. eigenvalues --    1.81208   1.83002   1.84241   1.88537   1.89008
 Alpha virt. eigenvalues --    1.90037   1.91005   1.91792   1.92976   1.94122
 Alpha virt. eigenvalues --    1.96113   1.97690   1.98873   2.00657   2.02440
 Alpha virt. eigenvalues --    2.03674   2.04959   2.06763   2.06849   2.08005
 Alpha virt. eigenvalues --    2.09479   2.10242   2.11787   2.12578   2.12886
 Alpha virt. eigenvalues --    2.13686   2.14517   2.15296   2.15589   2.16589
 Alpha virt. eigenvalues --    2.17790   2.18052   2.19278   2.19887   2.20278
 Alpha virt. eigenvalues --    2.21385   2.22285   2.23098   2.23929   2.25584
 Alpha virt. eigenvalues --    2.26047   2.26499   2.27020   2.27792   2.28481
 Alpha virt. eigenvalues --    2.29127   2.29979   2.31624   2.31996   2.33174
 Alpha virt. eigenvalues --    2.34363   2.35337   2.35844   2.37069   2.37371
 Alpha virt. eigenvalues --    2.37761   2.39122   2.39632   2.39772   2.40601
 Alpha virt. eigenvalues --    2.42242   2.43162   2.43330   2.44627   2.46209
 Alpha virt. eigenvalues --    2.47182   2.48083   2.48930   2.49673   2.51125
 Alpha virt. eigenvalues --    2.52683   2.53424   2.54760   2.55375   2.56427
 Alpha virt. eigenvalues --    2.57447   2.57892   2.59585   2.60272   2.62136
 Alpha virt. eigenvalues --    2.63542   2.64047   2.64730   2.65407   2.66871
 Alpha virt. eigenvalues --    2.68792   2.69302   2.70085   2.70752   2.71938
 Alpha virt. eigenvalues --    2.73489   2.74710   2.75693   2.75781   2.76911
 Alpha virt. eigenvalues --    2.77824   2.78230   2.79473   2.79947   2.81538
 Alpha virt. eigenvalues --    2.82800   2.85068   2.85702   2.86654   2.87566
 Alpha virt. eigenvalues --    2.88687   2.91451   2.92392   2.95891   2.96212
 Alpha virt. eigenvalues --    2.97178   2.98314   2.98700   3.00498   3.03325
 Alpha virt. eigenvalues --    3.03841   3.05784   3.06712   3.07009   3.08710
 Alpha virt. eigenvalues --    3.10904   3.11402   3.13461   3.15189   3.16116
 Alpha virt. eigenvalues --    3.18791   3.22036   3.24641   3.30636   3.30925
 Alpha virt. eigenvalues --    3.34322   3.34687   3.40170   3.40800   3.41895
 Alpha virt. eigenvalues --    3.42999   3.44875   3.56015   3.57869   3.58794
 Alpha virt. eigenvalues --    3.61302   4.38741   4.42073   4.49455   4.50297
 Alpha virt. eigenvalues --    4.52156   4.54795   4.57748   4.62225   4.63117
 Alpha virt. eigenvalues --    4.65328   4.67387   4.68337   4.70347   4.71611
 Alpha virt. eigenvalues --    4.73583   4.78395   4.81567   4.83256   4.84360
 Alpha virt. eigenvalues --    4.89728   4.91108   4.94159   4.96286   4.99727
 Alpha virt. eigenvalues --    5.02964   5.12546   5.23883   5.28974
          Condensed to atoms (all electrons):
 Mulliken atomic charges:
              1
     1  C   -0.262282
     2  N   -0.756510
     3  C    0.784538
     4  O   -0.651768
     5  C    0.079985
     6  C   -0.461886
     7  C   -0.281317
     8  C   -0.316925
     9  C   -0.372405
    10  C   -0.178241
    11  C   -0.179748
    12  C   -0.352084
    13  C   -0.310125
    14  C   -0.328889
    15  C    0.090845
    16  C   -0.509609
    17  N   -0.787647
    18  C    0.767392
    19  C   -0.595600
    20  O   -0.614225
    21  C    0.820851
    22  O   -0.639741
    23  N   -0.805506
    24  C   -0.275438
    25  N   -0.816240
    26  C    0.740952
    27  C   -0.580089
    28  O   -0.624955
    29  H    0.165156
    30  H    0.187560
    31  H    0.155530
    32  H    0.435259
    33  H    0.215323
    34  H    0.144372
    35  H    0.178445
    36  H    0.149268
    37  H    0.184571
    38  H    0.161493
    39  H    0.170655
    40  H    0.219019
    41  H    0.170616
    42  H    0.185959
    43  H    0.167952
    44  H    0.176038
    45  H    0.158293
    46  H    0.149208
    47  H    0.199628
    48  H    0.172483
    49  H    0.186208
    50  H    0.183062
    51  H    0.148870
    52  H    0.225848
    53  H    0.389838
    54  H    0.210556
    55  H    0.209303
    56  H    0.176089
    57  H    0.395131
    58  H    0.164899
    59  H    0.200269
    60  H    0.183972
    61  H    0.388936
    62  H    0.217561
    63  H    0.182719
    64  H    0.206581
 Sum of Mulliken atomic charges =   0.00000
 Mulliken charges with hydrogens summed into heavy atoms:
              1
     1  C    0.245965
     2  N   -0.321252
     3  C    0.784538
     4  O   -0.651768
     5  C    0.079985
     6  C    0.076253
     7  C    0.052521
     8  C    0.015222
     9  C    0.017230
    10  C    0.007718
    11  C   -0.011796
    12  C   -0.017754
    13  C    0.038710
    14  C    0.029802
    15  C    0.090845
    16  C    0.048172
    17  N   -0.397809
    18  C    0.767392
    19  C    0.000347
    20  O   -0.614225
    21  C    0.820851
    22  O   -0.639741
    23  N   -0.410375
    24  C    0.273702
    25  N   -0.427304
    26  C    0.740952
    27  C    0.026771
    28  O   -0.624955
 Sum of Mulliken charges with hydrogens summed into heavy atoms =   0.00000
 Electronic spatial extent (au):  <R**2>=          21390.6511
 Charge=              0.0000 electrons
 Dipole moment (field-independent basis, Debye):
    X=              5.9543    Y=             -4.2070    Z=             -5.2015  Tot=              8.9559
 Quadrupole moment (field-independent basis, Debye-Ang):
   XX=           -159.7772   YY=           -157.4807   ZZ=           -177.6401
   XY=            -11.5164   XZ=             -8.8727   YZ=             -6.6665
 Traceless Quadrupole moment (field-independent basis, Debye-Ang):
   XX=              5.1888   YY=              7.4853   ZZ=            -12.6741
   XY=            -11.5164   XZ=             -8.8727   YZ=             -6.6665
 Octapole moment (field-independent basis, Debye-Ang**2):
  XXX=            593.7761  YYY=             41.3472  ZZZ=            -22.3111  XYY=            -66.2189
  XXY=           -202.2649  XXZ=           -111.5658  XZZ=             -0.1654  YZZ=              1.1548
  YYZ=              5.6815  XYZ=              1.3843
 Hexadecapole moment (field-independent basis, Debye-Ang**3):
 XXXX=         -23471.3471 YYYY=          -2346.5974 ZZZZ=          -1437.6907 XXXY=             51.3644
 XXXZ=           -622.5854 YYYX=           -117.3262 YYYZ=             15.0567 ZZZX=            -98.9084
 ZZZY=            -26.5609 XXYY=          -4108.7551 XXZZ=          -4290.1633 YYZZ=           -642.3704
 XXYZ=           -110.5666 YYXZ=            -41.8819 ZZXY=            -36.8550
 N-N= 2.711914469518D+03 E-N=-8.456978480012D+03  KE= 1.294729040881D+03
 1\1\GINC-MOSURA\SP\RHF\6-31G(d)\C20H36N4O4\MARIE\05-Dec-2019\0\\#SP HF
 /6-31G* Geom=(ModRedundant)\\paramfit run\\0,1\C,0,0.,0.,0.\N,0,1.4481
 87,0.,0.\C,0,2.1232,0.47592,1.072365\O,0,1.590179,0.696732,2.124447\C,
 0,3.650505,0.594143,0.921539\C,0,4.198902,1.549248,1.986845\C,0,4.3077
 51,-0.809116,1.023981\C,0,4.133566,-1.622781,2.319066\C,0,2.832729,-2.
 433298,2.484965\C,0,2.579342,-3.423586,1.372579\C,0,2.834093,-4.721989
 ,1.375535\C,0,3.442731,-5.535663,2.492337\C,0,2.42774,-6.370218,3.2941
 33\C,0,1.693892,-7.402618,2.427801\C,0,0.774274,-8.428536,3.139447\C,0
 ,0.118887,-9.296969,2.053288\N,0,1.59533,-9.267679,4.001559\C,0,1.0367
 79,-10.167772,4.862321\C,0,1.96438,-10.678762,5.940862\O,0,-0.103289,-
 10.530888,4.775526\C,0,-0.228361,-7.657085,4.027316\O,0,0.090004,-7.29
 6707,5.128542\N,0,-1.416619,-7.323616,3.478843\C,0,-2.421442,-6.64525,
 4.271531\N,0,3.997412,1.070275,-0.425452\C,0,3.0832,1.544683,-1.319222
 \C,0,3.665696,2.306389,-2.491664\O,0,1.904919,1.36387,-1.196332\H,0,-0
 .403259,1.006147,0.\H,0,-0.36496,-0.516002,0.875939\H,0,-0.345658,-0.5
 22086,-0.883346\H,0,1.904244,0.070913,-0.879357\H,0,3.932135,1.22176,2
 .980082\H,0,5.28092,1.595925,1.9075\H,0,3.792711,2.540594,1.848395\H,0
 ,5.374584,-0.64325,0.891407\H,0,3.984642,-1.403324,0.174983\H,0,4.9615
 65,-2.324757,2.354635\H,0,4.250121,-0.975721,3.182259\H,0,1.985724,-1.
 764045,2.562723\H,0,2.895638,-2.94811,3.437249\H,0,2.135502,-3.009181,
 0.481856\H,0,2.579482,-5.276386,0.485828\H,0,3.971519,-4.889909,3.1828
 81\H,0,4.191817,-6.202016,2.066382\H,0,2.965623,-6.85691,4.102952\H,0,
 1.714584,-5.707921,3.766998\H,0,2.42081,-7.979938,1.860503\H,0,1.08316
 7,-6.875737,1.704087\H,0,0.891187,-9.872528,1.556434\H,0,-0.36551,-8.6
 84705,1.299714\H,0,-0.597925,-9.98679,2.472891\H,0,2.435807,-8.84784,4
 .327205\H,0,1.585188,-11.616367,6.31792\H,0,1.981002,-9.957975,6.75284
 4\H,0,2.97817,-10.810647,5.57862\H,0,-1.730263,-7.831365,2.685667\H,0,
 -3.24021,-6.362494,3.623002\H,0,-1.998054,-5.755067,4.713054\H,0,-2.79
 9425,-7.276973,5.068907\H,0,4.93453,1.386518,-0.540985\H,0,2.953722,2.
 294734,-3.304025\H,0,4.608389,1.887708,-2.825711\H,0,3.837251,3.336741
 ,-2.197139\\Version=EM64L-G09RevA.02\State=1-A\HF=-1295.4754809\RMSD=4
 .187e-09\Dipole=2.3369748,0.9829724,-2.4469432\Quadrupole=8.3809137,-6
 .4257045,-1.9552092,9.4503013,1.3536548,-7.7393643\PG=C01 [X(C20H36N4O
 4)]\\@


 IBM COMPATIBILITY IS LIKE PREGNANCY. YOU ARE OR
 OR YOU ARE NOT. -- ADAM OSBORNE
 Job cpu time:  0 days  0 hours  6 minutes  8.0 seconds.
 File lengths (MBytes):  RWF=    132 Int=      0 D2E=      0 Chk=     10 Scr=      1
 Normal termination of Gaussian 09 at Thu Dec  5 16:40:49 2019.
