 Entering Gaussian System, Link 0=g09
 Input=PHI_-10.gau
 Output=PHI_-10.log
 Initial command:
 /home/marie/Utilities//g09/l1.exe /tmp/g09/Gau-3902.inp -scrdir=/tmp/g09/
 Entering Link 1 = /home/marie/Utilities//g09/l1.exe PID=      3904.
  
 Copyright (c) 1988,1990,1992,1993,1995,1998,2003,2009, Gaussian, Inc.
                  All Rights Reserved.
  
 This is part of the Gaussian(R) 09 program.  It is based on
 the Gaussian(R) 03 system (copyright 2003, Gaussian, Inc.),
 the Gaussian(R) 98 system (copyright 1998, Gaussian, Inc.),
 the Gaussian(R) 94 system (copyright 1995, Gaussian, Inc.),
 the Gaussian 92(TM) system (copyright 1992, Gaussian, Inc.),
 the Gaussian 90(TM) system (copyright 1990, Gaussian, Inc.),
 the Gaussian 88(TM) system (copyright 1988, Gaussian, Inc.),
 the Gaussian 86(TM) system (copyright 1986, Carnegie Mellon
 University), and the Gaussian 82(TM) system (copyright 1983,
 Carnegie Mellon University). Gaussian is a federally registered
 trademark of Gaussian, Inc.
  
 This software contains proprietary and confidential information,
 including trade secrets, belonging to Gaussian, Inc.
  
 This software is provided under written license and may be
 used, copied, transmitted, or stored only in accord with that
 written license.
  
 The following legend is applicable only to US Government
 contracts under FAR:
  
                    RESTRICTED RIGHTS LEGEND
  
 Use, reproduction and disclosure by the US Government is
 subject to restrictions as set forth in subparagraphs (a)
 and (c) of the Commercial Computer Software - Restricted
 Rights clause in FAR 52.227-19.
  
 Gaussian, Inc.
 340 Quinnipiac St., Bldg. 40, Wallingford CT 06492
  
  
 ---------------------------------------------------------------
 Warning -- This program may not be used in any manner that
 competes with the business of Gaussian, Inc. or will provide
 assistance to any competitor of Gaussian, Inc.  The licensee
 of this program is prohibited from giving any competitor of
 Gaussian, Inc. access to this program.  By using this program,
 the user acknowledges that Gaussian, Inc. is engaged in the
 business of creating and licensing software in the field of
 computational chemistry and represents and warrants to the
 licensee that it is not a competitor of Gaussian, Inc. and that
 it will not use this program in any manner prohibited above.
 ---------------------------------------------------------------
  

 Cite this work as:
 Gaussian 09, Revision A.02,
 M. J. Frisch, G. W. Trucks, H. B. Schlegel, G. E. Scuseria, 
 M. A. Robb, J. R. Cheeseman, G. Scalmani, V. Barone, B. Mennucci, 
 G. A. Petersson, H. Nakatsuji, M. Caricato, X. Li, H. P. Hratchian, 
 A. F. Izmaylov, J. Bloino, G. Zheng, J. L. Sonnenberg, M. Hada, 
 M. Ehara, K. Toyota, R. Fukuda, J. Hasegawa, M. Ishida, T. Nakajima, 
 Y. Honda, O. Kitao, H. Nakai, T. Vreven, J. A. Montgomery, Jr., 
 J. E. Peralta, F. Ogliaro, M. Bearpark, J. J. Heyd, E. Brothers, 
 K. N. Kudin, V. N. Staroverov, R. Kobayashi, J. Normand, 
 K. Raghavachari, A. Rendell, J. C. Burant, S. S. Iyengar, J. Tomasi, 
 M. Cossi, N. Rega, J. M. Millam, M. Klene, J. E. Knox, J. B. Cross, 
 V. Bakken, C. Adamo, J. Jaramillo, R. Gomperts, R. E. Stratmann, 
 O. Yazyev, A. J. Austin, R. Cammi, C. Pomelli, J. W. Ochterski, 
 R. L. Martin, K. Morokuma, V. G. Zakrzewski, G. A. Voth, 
 P. Salvador, J. J. Dannenberg, S. Dapprich, A. D. Daniels, 
 O. Farkas, J. B. Foresman, J. V. Ortiz, J. Cioslowski, 
 and D. J. Fox, Gaussian, Inc., Wallingford CT, 2009.
 
 ******************************************
 Gaussian 09:  EM64L-G09RevA.02 11-Jun-2009
                 5-Dec-2019 
 ******************************************
 %chk=PHI_-10
 %NoSave
 ---------------------------------
 #SP HF/6-31G* Geom=(ModRedundant)
 ---------------------------------
 1/18=120,38=1/1;
 2/12=2,17=6,18=5,40=1/2;
 3/5=1,6=6,7=1,11=9,16=1,25=1,30=1/1,2,3;
 4//1;
 5/5=2,38=5/2;
 6/7=2,8=2,9=2,10=2,28=1/1;
 99/5=1,9=1/99;
 ------------
 paramfit run
 ------------
 Symbolic Z-matrix:
 Charge =  0 Multiplicity = 1
 C-CT--0.3208          0.        0.        0. 
 N-N--0.5622           1.44819   0.        0. 
 C-C-0.8053            2.1232    0.47592   1.07237 
 O-O--0.6151           1.59018   0.69673   2.12445 
 C-CX-0.0839           3.65051   0.59414   0.92154 
 C-CU--0.3230          4.1989    1.54925   1.98685 
 C-CU--0.0657          4.30775  -0.80912   1.02398 
 C-CU--0.0109          4.13357  -1.62278   2.31907 
 C-CU-0.0816           2.83273  -2.4333    2.48497 
 C-CM--0.2354          2.57934  -3.42359   1.37258 
 C-CM--0.2653          2.83409  -4.72199   1.37554 
 C-CU-0.1214           3.44273  -5.53566   2.49234 
 C-CU--0.0354          2.42774  -6.37022   3.29413 
 C-CU--0.0984          1.69389  -7.40262   2.4278 
 C-CU-0.1300           0.77427  -8.42854   3.13945 
 C-CU--0.3561          0.11889  -9.29697   2.05329 
 N-N--0.7186           1.59533  -9.26768   4.00156 
 C-C-0.8537            1.03678  -10.16777   4.86232 
 C-CT--0.3868          1.96438  -10.67876   5.94086 
 O-O--0.6323          -0.10329  -10.53089   4.77553 
 C-C-0.7903           -0.22836  -7.65709   4.02732 
 O-O--0.6136           0.09     -7.29671   5.12854 
 N-N--0.5650          -1.41662  -7.32362   3.47884 
 C-CT--0.3231         -2.42144  -6.64525   4.27153 
 N-N--0.7191           3.99741   1.07028  -0.42545 
 C-C-0.8539            3.09944   1.17224  -1.44669 
 C-CT--0.3903          3.55874   2.00441  -2.62595 
 O-O--0.6290           2.02888   0.63425  -1.42231 
 H-H1-0.1459          -0.40326   1.00615   0. 
 H-H1-0.1459          -0.36496  -0.516     0.87594 
 H-H1-0.1459          -0.34566  -0.52209  -0.88335 
 H-H-0.3572            1.90424   0.07091  -0.87936 
 H-HC-0.0997           3.93214   1.22176   2.98008 
 H-HC-0.0997           5.28092   1.59593   1.9075 
 H-HC-0.0997           3.79271   2.54059   1.8484 
 H-HC-0.0347           5.37458  -0.64325   0.89141 
 H-HC-0.0347           3.98464  -1.40332   0.17498 
 H-HC-0.0243           4.96157  -2.32476   2.35464 
 H-HC-0.0243           4.25012  -0.97572   3.18226 
 H-HC-0.0171           1.98572  -1.76405   2.56272 
 H-HC-0.0171           2.89564  -2.94811   3.43725 
 H-HA-0.1313           2.1355   -3.00918   0.48186 
 H-HA-0.1359           2.57948  -5.27639   0.48583 
 H-HC-0.0092           3.97152  -4.88991   3.18288 
 H-HC-0.0092           4.19182  -6.20202   2.06638 
 H-HC-0.0318           2.96562  -6.85691   4.10295 
 H-HC-0.0318           1.71458  -5.70792   3.767 
 H-HC-0.0435           2.42081  -7.97994   1.8605 
 H-HC-0.0435           1.08317  -6.87574   1.70409 
 H-HC-0.1066           0.89119  -9.87253   1.55643 
 H-HC-0.1066          -0.36551  -8.68471   1.29971 
 H-HC-0.1066          -0.59793  -9.98679   2.47289 
 H-H-0.3529            2.43581  -8.84784   4.32721 
 H-HC-0.1047           1.58519  -11.61637   6.31792 
 H-HC-0.1047           1.981    -9.95798   6.75284 
 H-HC-0.1047           2.97817  -10.81065   5.57862 
 H-H-0.3615           -1.73026  -7.83136   2.68567 
 H-H1-0.1469          -3.24021  -6.36249   3.623 
 H-H1-0.1469          -1.99805  -5.75507   4.71305 
 H-H1-0.1469          -2.79943  -7.27697   5.06891 
 H-H-0.3570            4.79782   1.66017  -0.47946 
 H-HC-0.1060           2.99148   1.71597  -3.49888 
 H-HC-0.1060           4.61837   1.8871   -2.82336 
 H-HC-0.1060           3.36594   3.05219  -2.41911 
 
 The following ModRedundant input section has been read:
 D    *    5   25    * F                                                       
 Stoichiometry    C20H36N4O4
 Framework group  C1[X(C20H36N4O4)]
 Deg. of freedom   186
 Full point group                 C1      NOp   1
 Largest Abelian subgroup         C1      NOp   1
 Largest concise Abelian subgroup C1      NOp   1
                         Standard orientation:                         
 ---------------------------------------------------------------------
 Center     Atomic      Atomic             Coordinates (Angstroms)
 Number     Number       Type             X           Y           Z
 ---------------------------------------------------------------------
      1          6    20001001       -3.940503    2.813771   -0.044571
      2          7    20001014       -4.270083    1.415859    0.141078
      3          6    20001002       -4.430222    0.611338   -0.935588
      4          8    20001024       -4.095714    0.937904   -2.040670
      5          6    90000001       -4.942106   -0.812918   -0.654777
      6          6    90000002       -5.503750   -1.419930   -1.944712
      7          6    90000002       -3.799634   -1.685072   -0.066807
      8          6    90000002       -2.528993   -1.915469   -0.904676
      9          6    90000002       -1.445050   -0.819618   -0.876160
     10          6    20001004       -0.937509   -0.492860    0.508726
     11          6    20001004        0.164210   -0.939355    1.089773
     12          6    90000002        1.187187   -1.887788    0.512066
     13          6    90000002        2.475476   -1.205717    0.017438
     14          6    90000002        3.225878   -0.473573    1.138052
     15          6    90000002        4.628060    0.105984    0.817671
     16          6    90000002        5.128586    0.834020    2.075799
     17          7    20001014        5.526111   -0.997683    0.506296
     18          6    20001002        6.791993   -0.778739    0.045141
     19          6    20001001        7.457382   -1.980374   -0.585839
     20          8    20001024        7.341610    0.284139    0.130896
     21          6    20001002        4.514087    1.005307   -0.434109
     22          8    20001024        4.549465    0.521170   -1.533330
     23          7    20001014        4.273102    2.319382   -0.236333
     24          6    20001001        4.205572    3.226562   -1.363572
     25          7    20001014       -5.971119   -0.790278    0.395009
     26          6    20001002       -6.255944    0.307673    1.152010
     27          6    20001001       -7.562818    0.241269    1.914763
     28          8    20001024       -5.522759    1.253075    1.221241
     29          1    20001035       -4.746497    3.357985   -0.523272
     30          1    20001035       -3.055479    2.901795   -0.657520
     31          1    20001035       -3.740425    3.253383    0.924482
     32          1    20001029       -4.780027    1.172074    0.957664
     33          1    20001034       -4.763543   -1.422404   -2.730219
     34          1    20001034       -5.822584   -2.440457   -1.754692
     35          1    20001034       -6.349854   -0.845957   -2.293407
     36          1    20001034       -4.242118   -2.661355    0.118395
     37          1    20001034       -3.526941   -1.285580    0.904957
     38          1    20001034       -2.077200   -2.830337   -0.532498
     39          1    20001034       -2.796303   -2.110434   -1.938073
     40          1    20001034       -1.819131    0.084648   -1.338468
     41          1    20001034       -0.628693   -1.160532   -1.503195
     42          1    20001033       -1.553577    0.187309    1.074361
     43          1    20001033        0.369918   -0.591263    2.089911
     44          1    20001034        0.759907   -2.444451   -0.313176
     45          1    20001034        1.445196   -2.623628    1.272699
     46          1    20001034        3.102706   -1.970518   -0.432047
     47          1    20001034        2.231200   -0.515080   -0.778917
     48          1    20001034        3.354376   -1.144484    1.984752
     49          1    20001034        2.612549    0.349776    1.484859
     50          1    20001034        5.272653    0.104712    2.864427
     51          1    20001034        4.398679    1.554876    2.429330
     52          1    20001034        6.070846    1.331186    1.900553
     53          1    20001029        5.087196   -1.813025    0.143968
     54          1    20001034        8.527311   -1.838293   -0.574511
     55          1    20001034        7.127062   -2.056716   -1.617433
     56          1    20001034        7.203096   -2.902858   -0.075208
     57          1    20001029        4.488262    2.711277    0.649915
     58          1    20001035        3.886735    4.197273   -1.007222
     59          1    20001035        3.487081    2.861820   -2.082849
     60          1    20001035        5.166183    3.325910   -1.858659
     61          1    20001029       -6.700687   -1.460660    0.295683
     62          1    20001034       -7.516726    0.928572    2.746907
     63          1    20001034       -7.776265   -0.757997    2.277332
     64          1    20001034       -8.373200    0.545107    1.259962
 ---------------------------------------------------------------------
 Rotational constants (GHZ):      0.3865767      0.0520646      0.0503242
 Standard basis: 6-31G(d) (6D, 7F)
 There are   492 symmetry adapted basis functions of A   symmetry.
 Integral buffers will be    131072 words long.
 Raffenetti 1 integral format.
 Two-electron integral symmetry is turned on.
   492 basis functions,   928 primitive gaussians,   492 cartesian basis functions
   108 alpha electrons      108 beta electrons
       nuclear repulsion energy      2723.0661601340 Hartrees.
 NAtoms=   64 NActive=   64 NUniq=   64 SFac= 7.50D-01 NAtFMM=   80 NAOKFM=F Big=T
 One-electron integrals computed using PRISM.
 NBasis=   492 RedAO= T  NBF=   492
 NBsUse=   492 1.00D-06 NBFU=   492
 Harris functional with IExCor=  205 diagonalized for initial guess.
 ExpMin= 1.61D-01 ExpMax= 5.48D+03 ExpMxC= 8.25D+02 IAcc=1 IRadAn=         1 AccDes= 0.00D+00
 HarFok:  IExCor=  205 AccDes= 0.00D+00 IRadAn=         1 IDoV= 1
 ScaDFX=  1.000000  1.000000  1.000000  1.000000
 FoFCou: FMM=F IPFlag=           0 FMFlag=      100000 FMFlg1=           1
         NFxFlg=           0 DoJE=T BraDBF=F KetDBF=T FulRan=T
         Omega=  0.000000  0.000000  1.000000  0.000000  0.000000 ICntrl=     500 IOpCl=  0
         NMat0=    1 NMatS0=    1 NMatT0=    0 NMatD0=    1 NMtDS0=    0 NMtDT0=    0
         I1Cent=           4 NGrid=           0.
 Petite list used in FoFCou.
 Initial guess orbital symmetries:
       Occupied  (A) (A) (A) (A) (A) (A) (A) (A) (A) (A) (A) (A)
                 (A) (A) (A) (A) (A) (A) (A) (A) (A) (A) (A) (A)
                 (A) (A) (A) (A) (A) (A) (A) (A) (A) (A) (A) (A)
                 (A) (A) (A) (A) (A) (A) (A) (A) (A) (A) (A) (A)
                 (A) (A) (A) (A) (A) (A) (A) (A) (A) (A) (A) (A)
                 (A) (A) (A) (A) (A) (A) (A) (A) (A) (A) (A) (A)
                 (A) (A) (A) (A) (A) (A) (A) (A) (A) (A) (A) (A)
                 (A) (A) (A) (A) (A) (A) (A) (A) (A) (A) (A) (A)
                 (A) (A) (A) (A) (A) (A) (A) (A) (A) (A) (A) (A)
       Virtual   (A) (A) (A) (A) (A) (A) (A) (A) (A) (A) (A) (A)
                 (A) (A) (A) (A) (A) (A) (A) (A) (A) (A) (A) (A)
                 (A) (A) (A) (A) (A) (A) (A) (A) (A) (A) (A) (A)
                 (A) (A) (A) (A) (A) (A) (A) (A) (A) (A) (A) (A)
                 (A) (A) (A) (A) (A) (A) (A) (A) (A) (A) (A) (A)
                 (A) (A) (A) (A) (A) (A) (A) (A) (A) (A) (A) (A)
                 (A) (A) (A) (A) (A) (A) (A) (A) (A) (A) (A) (A)
                 (A) (A) (A) (A) (A) (A) (A) (A) (A) (A) (A) (A)
                 (A) (A) (A) (A) (A) (A) (A) (A) (A) (A) (A) (A)
                 (A) (A) (A) (A) (A) (A) (A) (A) (A) (A) (A) (A)
                 (A) (A) (A) (A) (A) (A) (A) (A) (A) (A) (A) (A)
                 (A) (A) (A) (A) (A) (A) (A) (A) (A) (A) (A) (A)
                 (A) (A) (A) (A) (A) (A) (A) (A) (A) (A) (A) (A)
                 (A) (A) (A) (A) (A) (A) (A) (A) (A) (A) (A) (A)
                 (A) (A) (A) (A) (A) (A) (A) (A) (A) (A) (A) (A)
                 (A) (A) (A) (A) (A) (A) (A) (A) (A) (A) (A) (A)
                 (A) (A) (A) (A) (A) (A) (A) (A) (A) (A) (A) (A)
                 (A) (A) (A) (A) (A) (A) (A) (A) (A) (A) (A) (A)
                 (A) (A) (A) (A) (A) (A) (A) (A) (A) (A) (A) (A)
                 (A) (A) (A) (A) (A) (A) (A) (A) (A) (A) (A) (A)
                 (A) (A) (A) (A) (A) (A) (A) (A) (A) (A) (A) (A)
                 (A) (A) (A) (A) (A) (A) (A) (A) (A) (A) (A) (A)
                 (A) (A) (A) (A) (A) (A) (A) (A) (A) (A) (A) (A)
                 (A) (A) (A) (A) (A) (A) (A) (A) (A) (A) (A) (A)
                 (A) (A) (A) (A) (A) (A) (A) (A) (A) (A) (A) (A)
                 (A) (A) (A) (A) (A) (A) (A) (A) (A) (A) (A) (A)
                 (A) (A) (A) (A) (A) (A) (A) (A) (A) (A) (A) (A)
                 (A) (A) (A) (A) (A) (A) (A) (A) (A) (A) (A) (A)
                 (A) (A) (A) (A) (A) (A) (A) (A) (A) (A) (A) (A)
                 (A) (A) (A) (A) (A) (A) (A) (A) (A) (A) (A) (A)
                 (A) (A) (A) (A) (A) (A) (A) (A) (A) (A) (A) (A)
                 (A) (A) (A) (A) (A) (A) (A) (A) (A) (A) (A) (A)
 The electronic state of the initial guess is 1-A.
 Requested convergence on RMS density matrix=1.00D-08 within 128 cycles.
 Requested convergence on MAX density matrix=1.00D-06.
 Requested convergence on             energy=1.00D-06.
 No special actions if energy rises.
 Integral accuracy reduced to 1.0D-05 until final iterations.
 Initial convergence to 1.0D-05 achieved.  Increase integral accuracy.
 SCF Done:  E(RHF) =  -1295.21584686     A.U. after   17 cycles
             Convg  =    0.5305D-08             -V/T =  1.9995

 **********************************************************************

            Population analysis using the SCF density.

 **********************************************************************

 Orbital symmetries:
       Occupied  (A) (A) (A) (A) (A) (A) (A) (A) (A) (A) (A) (A)
                 (A) (A) (A) (A) (A) (A) (A) (A) (A) (A) (A) (A)
                 (A) (A) (A) (A) (A) (A) (A) (A) (A) (A) (A) (A)
                 (A) (A) (A) (A) (A) (A) (A) (A) (A) (A) (A) (A)
                 (A) (A) (A) (A) (A) (A) (A) (A) (A) (A) (A) (A)
                 (A) (A) (A) (A) (A) (A) (A) (A) (A) (A) (A) (A)
                 (A) (A) (A) (A) (A) (A) (A) (A) (A) (A) (A) (A)
                 (A) (A) (A) (A) (A) (A) (A) (A) (A) (A) (A) (A)
                 (A) (A) (A) (A) (A) (A) (A) (A) (A) (A) (A) (A)
       Virtual   (A) (A) (A) (A) (A) (A) (A) (A) (A) (A) (A) (A)
                 (A) (A) (A) (A) (A) (A) (A) (A) (A) (A) (A) (A)
                 (A) (A) (A) (A) (A) (A) (A) (A) (A) (A) (A) (A)
                 (A) (A) (A) (A) (A) (A) (A) (A) (A) (A) (A) (A)
                 (A) (A) (A) (A) (A) (A) (A) (A) (A) (A) (A) (A)
                 (A) (A) (A) (A) (A) (A) (A) (A) (A) (A) (A) (A)
                 (A) (A) (A) (A) (A) (A) (A) (A) (A) (A) (A) (A)
                 (A) (A) (A) (A) (A) (A) (A) (A) (A) (A) (A) (A)
                 (A) (A) (A) (A) (A) (A) (A) (A) (A) (A) (A) (A)
                 (A) (A) (A) (A) (A) (A) (A) (A) (A) (A) (A) (A)
                 (A) (A) (A) (A) (A) (A) (A) (A) (A) (A) (A) (A)
                 (A) (A) (A) (A) (A) (A) (A) (A) (A) (A) (A) (A)
                 (A) (A) (A) (A) (A) (A) (A) (A) (A) (A) (A) (A)
                 (A) (A) (A) (A) (A) (A) (A) (A) (A) (A) (A) (A)
                 (A) (A) (A) (A) (A) (A) (A) (A) (A) (A) (A) (A)
                 (A) (A) (A) (A) (A) (A) (A) (A) (A) (A) (A) (A)
                 (A) (A) (A) (A) (A) (A) (A) (A) (A) (A) (A) (A)
                 (A) (A) (A) (A) (A) (A) (A) (A) (A) (A) (A) (A)
                 (A) (A) (A) (A) (A) (A) (A) (A) (A) (A) (A) (A)
                 (A) (A) (A) (A) (A) (A) (A) (A) (A) (A) (A) (A)
                 (A) (A) (A) (A) (A) (A) (A) (A) (A) (A) (A) (A)
                 (A) (A) (A) (A) (A) (A) (A) (A) (A) (A) (A) (A)
                 (A) (A) (A) (A) (A) (A) (A) (A) (A) (A) (A) (A)
                 (A) (A) (A) (A) (A) (A) (A) (A) (A) (A) (A) (A)
                 (A) (A) (A) (A) (A) (A) (A) (A) (A) (A) (A) (A)
                 (A) (A) (A) (A) (A) (A) (A) (A) (A) (A) (A) (A)
                 (A) (A) (A) (A) (A) (A) (A) (A) (A) (A) (A) (A)
                 (A) (A) (A) (A) (A) (A) (A) (A) (A) (A) (A) (A)
                 (A) (A) (A) (A) (A) (A) (A) (A) (A) (A) (A) (A)
                 (A) (A) (A) (A) (A) (A) (A) (A) (A) (A) (A) (A)
                 (A) (A) (A) (A) (A) (A) (A) (A) (A) (A) (A) (A)
                 (A) (A) (A) (A) (A) (A) (A) (A) (A) (A) (A) (A)
 The electronic state is 1-A.
 Alpha  occ. eigenvalues --  -20.58253 -20.51607 -20.51022 -20.47075 -15.63407
 Alpha  occ. eigenvalues --  -15.57329 -15.57024 -15.44370 -11.41813 -11.33816
 Alpha  occ. eigenvalues --  -11.33111 -11.29133 -11.28749 -11.27990 -11.27584
 Alpha  occ. eigenvalues --  -11.24423 -11.22701 -11.22424 -11.22313 -11.22137
 Alpha  occ. eigenvalues --  -11.21628 -11.21548 -11.21429 -11.21285 -11.20943
 Alpha  occ. eigenvalues --  -11.20820 -11.20714 -11.20109  -1.59343  -1.38868
 Alpha  occ. eigenvalues --   -1.37576  -1.34394  -1.29742  -1.23038  -1.22044
 Alpha  occ. eigenvalues --   -1.19649  -1.09833  -1.08902  -1.06894  -1.04857
 Alpha  occ. eigenvalues --   -1.02611  -0.99467  -0.98328  -0.96926  -0.94532
 Alpha  occ. eigenvalues --   -0.94048  -0.92539  -0.90811  -0.86611  -0.85102
 Alpha  occ. eigenvalues --   -0.82011  -0.81269  -0.79066  -0.78765  -0.76332
 Alpha  occ. eigenvalues --   -0.72954  -0.71162  -0.70490  -0.69668  -0.67705
 Alpha  occ. eigenvalues --   -0.67299  -0.65628  -0.65129  -0.63709  -0.63054
 Alpha  occ. eigenvalues --   -0.62753  -0.61392  -0.61182  -0.60991  -0.60813
 Alpha  occ. eigenvalues --   -0.60650  -0.60392  -0.59590  -0.58738  -0.58142
 Alpha  occ. eigenvalues --   -0.57565  -0.57114  -0.56613  -0.55985  -0.55837
 Alpha  occ. eigenvalues --   -0.55672  -0.54881  -0.54281  -0.54196  -0.53643
 Alpha  occ. eigenvalues --   -0.53063  -0.52501  -0.51640  -0.51390  -0.50611
 Alpha  occ. eigenvalues --   -0.50090  -0.49327  -0.48981  -0.48137  -0.47924
 Alpha  occ. eigenvalues --   -0.47336  -0.46662  -0.45649  -0.43316  -0.43153
 Alpha  occ. eigenvalues --   -0.40967  -0.40606  -0.38356  -0.38306  -0.37720
 Alpha  occ. eigenvalues --   -0.34715  -0.33274  -0.25558
 Alpha virt. eigenvalues --    0.12942   0.18343   0.18823   0.20167   0.22092
 Alpha virt. eigenvalues --    0.22119   0.22525   0.23395   0.23817   0.24667
 Alpha virt. eigenvalues --    0.25621   0.26161   0.26874   0.27149   0.27896
 Alpha virt. eigenvalues --    0.28084   0.28508   0.28983   0.29527   0.29935
 Alpha virt. eigenvalues --    0.30224   0.30860   0.31238   0.31570   0.31978
 Alpha virt. eigenvalues --    0.32779   0.33131   0.33616   0.34028   0.34385
 Alpha virt. eigenvalues --    0.34708   0.35036   0.35446   0.35978   0.36090
 Alpha virt. eigenvalues --    0.36540   0.37401   0.37642   0.38122   0.38912
 Alpha virt. eigenvalues --    0.39035   0.39652   0.40169   0.40317   0.40990
 Alpha virt. eigenvalues --    0.41677   0.42645   0.42971   0.43492   0.44749
 Alpha virt. eigenvalues --    0.45547   0.46138   0.46516   0.47233   0.47935
 Alpha virt. eigenvalues --    0.48101   0.48740   0.49679   0.52789   0.54364
 Alpha virt. eigenvalues --    0.55924   0.56386   0.58296   0.58538   0.60236
 Alpha virt. eigenvalues --    0.63157   0.64864   0.65388   0.69967   0.70106
 Alpha virt. eigenvalues --    0.70925   0.71382   0.72063   0.72680   0.73247
 Alpha virt. eigenvalues --    0.73498   0.74011   0.75082   0.76130   0.76896
 Alpha virt. eigenvalues --    0.77203   0.77775   0.78518   0.79185   0.79664
 Alpha virt. eigenvalues --    0.79950   0.80715   0.81071   0.81672   0.82568
 Alpha virt. eigenvalues --    0.82859   0.84539   0.85801   0.85827   0.86486
 Alpha virt. eigenvalues --    0.87802   0.88622   0.88900   0.89495   0.90865
 Alpha virt. eigenvalues --    0.91691   0.92195   0.92920   0.93361   0.94035
 Alpha virt. eigenvalues --    0.95292   0.95626   0.96501   0.96729   0.97788
 Alpha virt. eigenvalues --    0.99420   0.99934   1.00704   1.01254   1.02020
 Alpha virt. eigenvalues --    1.02636   1.03109   1.04553   1.04622   1.04876
 Alpha virt. eigenvalues --    1.05168   1.06196   1.06794   1.07720   1.08096
 Alpha virt. eigenvalues --    1.08897   1.10201   1.10328   1.11033   1.11824
 Alpha virt. eigenvalues --    1.12782   1.13525   1.13766   1.14218   1.14731
 Alpha virt. eigenvalues --    1.15056   1.15420   1.15901   1.15984   1.16605
 Alpha virt. eigenvalues --    1.16987   1.17179   1.17396   1.17934   1.18283
 Alpha virt. eigenvalues --    1.18602   1.18913   1.19295   1.19694   1.19964
 Alpha virt. eigenvalues --    1.20245   1.20769   1.21727   1.22011   1.22110
 Alpha virt. eigenvalues --    1.22415   1.22804   1.23370   1.23654   1.24098
 Alpha virt. eigenvalues --    1.24682   1.24923   1.25529   1.26637   1.27078
 Alpha virt. eigenvalues --    1.27864   1.28162   1.29087   1.29747   1.30293
 Alpha virt. eigenvalues --    1.30955   1.31796   1.32590   1.33148   1.34552
 Alpha virt. eigenvalues --    1.35256   1.36331   1.37197   1.38683   1.39335
 Alpha virt. eigenvalues --    1.40841   1.42648   1.43942   1.45095   1.45634
 Alpha virt. eigenvalues --    1.46683   1.48107   1.48965   1.50064   1.50221
 Alpha virt. eigenvalues --    1.51678   1.52584   1.54407   1.54922   1.56198
 Alpha virt. eigenvalues --    1.57435   1.59143   1.59668   1.61806   1.63004
 Alpha virt. eigenvalues --    1.64312   1.67275   1.67589   1.69989   1.70336
 Alpha virt. eigenvalues --    1.72141   1.72854   1.73623   1.74520   1.76115
 Alpha virt. eigenvalues --    1.78004   1.78755   1.79603   1.81036   1.82810
 Alpha virt. eigenvalues --    1.83159   1.83721   1.84068   1.87587   1.89557
 Alpha virt. eigenvalues --    1.90393   1.90630   1.92191   1.92880   1.94177
 Alpha virt. eigenvalues --    1.95520   1.96839   1.99119   1.99488   2.02082
 Alpha virt. eigenvalues --    2.03659   2.05230   2.06515   2.07520   2.08208
 Alpha virt. eigenvalues --    2.10085   2.10672   2.11871   2.12881   2.13477
 Alpha virt. eigenvalues --    2.14468   2.15061   2.16052   2.16551   2.16834
 Alpha virt. eigenvalues --    2.17423   2.18211   2.19485   2.19757   2.20094
 Alpha virt. eigenvalues --    2.20998   2.22508   2.23550   2.24512   2.25688
 Alpha virt. eigenvalues --    2.26448   2.26995   2.27917   2.28774   2.29274
 Alpha virt. eigenvalues --    2.30303   2.30719   2.32395   2.33429   2.34655
 Alpha virt. eigenvalues --    2.34701   2.36352   2.37186   2.37524   2.37918
 Alpha virt. eigenvalues --    2.38039   2.39861   2.39947   2.40312   2.41273
 Alpha virt. eigenvalues --    2.42656   2.42988   2.44742   2.45231   2.46294
 Alpha virt. eigenvalues --    2.46849   2.48069   2.49191   2.49955   2.51564
 Alpha virt. eigenvalues --    2.52511   2.53117   2.53629   2.55662   2.56517
 Alpha virt. eigenvalues --    2.57039   2.57943   2.59962   2.62017   2.62946
 Alpha virt. eigenvalues --    2.63798   2.64757   2.65189   2.65648   2.67190
 Alpha virt. eigenvalues --    2.67770   2.68514   2.69722   2.70808   2.72866
 Alpha virt. eigenvalues --    2.73964   2.74709   2.76078   2.77325   2.77454
 Alpha virt. eigenvalues --    2.78461   2.79191   2.80128   2.81090   2.82508
 Alpha virt. eigenvalues --    2.83705   2.85621   2.86421   2.86923   2.88720
 Alpha virt. eigenvalues --    2.91585   2.92461   2.93422   2.95702   2.96399
 Alpha virt. eigenvalues --    2.97531   2.99016   3.01320   3.03377   3.04117
 Alpha virt. eigenvalues --    3.06056   3.07537   3.07902   3.11629   3.12534
 Alpha virt. eigenvalues --    3.12906   3.13556   3.14107   3.16398   3.19086
 Alpha virt. eigenvalues --    3.21615   3.22092   3.24663   3.31134   3.32620
 Alpha virt. eigenvalues --    3.34461   3.34924   3.41027   3.42433   3.43241
 Alpha virt. eigenvalues --    3.46527   3.56260   3.57501   3.58099   3.63540
 Alpha virt. eigenvalues --    3.98171   4.38992   4.42397   4.49692   4.52369
 Alpha virt. eigenvalues --    4.53420   4.56500   4.59226   4.61935   4.63217
 Alpha virt. eigenvalues --    4.66047   4.67655   4.68324   4.70621   4.72203
 Alpha virt. eigenvalues --    4.76231   4.78706   4.83319   4.84580   4.85201
 Alpha virt. eigenvalues --    4.90053   4.93729   4.94413   4.96831   5.00389
 Alpha virt. eigenvalues --    5.03310   5.11352   5.24138   5.26246
          Condensed to atoms (all electrons):
 Mulliken atomic charges:
              1
     1  C   -0.252829
     2  N   -0.888780
     3  C    0.731017
     4  O   -0.675244
     5  C    0.084183
     6  C   -0.477392
     7  C   -0.268593
     8  C   -0.315847
     9  C   -0.372153
    10  C   -0.178970
    11  C   -0.182365
    12  C   -0.350794
    13  C   -0.309825
    14  C   -0.328702
    15  C    0.090766
    16  C   -0.509571
    17  N   -0.787733
    18  C    0.767455
    19  C   -0.595521
    20  O   -0.614519
    21  C    0.821074
    22  O   -0.639877
    23  N   -0.805129
    24  C   -0.275396
    25  N   -0.814591
    26  C    0.725465
    27  C   -0.577499
    28  O   -0.376817
    29  H    0.140192
    30  H    0.175310
    31  H    0.138459
    32  H    0.394988
    33  H    0.228018
    34  H    0.143471
    35  H    0.174869
    36  H    0.145283
    37  H    0.179354
    38  H    0.158571
    39  H    0.168214
    40  H    0.228221
    41  H    0.166847
    42  H    0.191815
    43  H    0.165765
    44  H    0.175775
    45  H    0.156252
    46  H    0.147794
    47  H    0.200276
    48  H    0.171654
    49  H    0.187053
    50  H    0.182523
    51  H    0.149134
    52  H    0.225243
    53  H    0.389911
    54  H    0.210027
    55  H    0.209297
    56  H    0.175873
    57  H    0.394857
    58  H    0.164869
    59  H    0.201086
    60  H    0.183092
    61  H    0.402295
    62  H    0.227455
    63  H    0.206937
    64  H    0.217400
 Sum of Mulliken atomic charges =   0.00000
 Mulliken charges with hydrogens summed into heavy atoms:
              1
     1  C    0.201132
     2  N   -0.888780
     3  C    0.731017
     4  O   -0.675244
     5  C    0.084183
     6  C    0.068967
     7  C    0.056045
     8  C    0.010939
     9  C    0.022915
    10  C    0.012846
    11  C   -0.016600
    12  C   -0.018766
    13  C    0.038245
    14  C    0.030005
    15  C    0.090766
    16  C    0.047329
    17  N   -0.397821
    18  C    0.767455
    19  C   -0.000325
    20  O   -0.614519
    21  C    0.821074
    22  O   -0.639877
    23  N   -0.410272
    24  C    0.273652
    25  N   -0.412296
    26  C    0.725465
    27  C    0.074294
    28  O    0.018171
 Sum of Mulliken charges with hydrogens summed into heavy atoms =   0.00000
 Electronic spatial extent (au):  <R**2>=          21064.2119
 Charge=              0.0000 electrons
 Dipole moment (field-independent basis, Debye):
    X=             -8.5245    Y=             -4.1526    Z=              6.0655  Tot=             11.2562
 Quadrupole moment (field-independent basis, Debye-Ang):
   XX=           -134.0785   YY=           -159.1806   ZZ=           -178.9599
   XY=              8.9372   XZ=            -14.5384   YZ=              7.1682
 Traceless Quadrupole moment (field-independent basis, Debye-Ang):
   XX=             23.3278   YY=             -1.7742   ZZ=            -21.5536
   XY=              8.9372   XZ=            -14.5384   YZ=              7.1682
 Octapole moment (field-independent basis, Debye-Ang**2):
  XXX=           -812.1875  YYY=             37.2235  ZZZ=             29.6913  XYY=             67.4514
  XXY=           -168.0192  XXZ=            151.9491  XZZ=             -0.1398  YZZ=             -1.8206
  YYZ=             -6.0550  XYZ=             -7.9946
 Hexadecapole moment (field-independent basis, Debye-Ang**3):
 XXXX=         -21367.5852 YYYY=          -2368.1250 ZZZZ=          -1528.3201 XXXY=           -293.3494
 XXXZ=           -893.5035 YYYX=            113.2408 YYYZ=            -11.2911 ZZZX=           -147.0555
 ZZZY=             31.0193 XXYY=          -3987.9816 XXZZ=          -4206.9596 YYZZ=           -657.9952
 XXYZ=            138.5117 YYXZ=            -46.6799 ZZXY=             54.9359
 N-N= 2.723066160134D+03 E-N=-8.479991842293D+03  KE= 1.295924324368D+03
 1\1\GINC-MOSURA\SP\RHF\6-31G(d)\C20H36N4O4\MARIE\05-Dec-2019\0\\#SP HF
 /6-31G* Geom=(ModRedundant)\\paramfit run\\0,1\C,0,0.,0.,0.\N,0,1.4481
 87,0.,0.\C,0,2.1232,0.47592,1.072365\O,0,1.590179,0.696732,2.124447\C,
 0,3.650505,0.594143,0.921539\C,0,4.198902,1.549248,1.986845\C,0,4.3077
 51,-0.809116,1.023981\C,0,4.133566,-1.622781,2.319066\C,0,2.832729,-2.
 433298,2.484965\C,0,2.579342,-3.423586,1.372579\C,0,2.834093,-4.721989
 ,1.375535\C,0,3.442731,-5.535663,2.492337\C,0,2.42774,-6.370218,3.2941
 33\C,0,1.693892,-7.402618,2.427801\C,0,0.774274,-8.428536,3.139447\C,0
 ,0.118887,-9.296969,2.053288\N,0,1.59533,-9.267679,4.001559\C,0,1.0367
 79,-10.167772,4.862321\C,0,1.96438,-10.678762,5.940862\O,0,-0.103289,-
 10.530888,4.775526\C,0,-0.228361,-7.657085,4.027316\O,0,0.090004,-7.29
 6707,5.128542\N,0,-1.416619,-7.323616,3.478843\C,0,-2.421442,-6.64525,
 4.271531\N,0,3.997412,1.070275,-0.425452\C,0,3.099441,1.172244,-1.4466
 88\C,0,3.55874,2.004408,-2.625954\O,0,2.028876,0.634253,-1.422311\H,0,
 -0.403259,1.006147,0.\H,0,-0.36496,-0.516002,0.875939\H,0,-0.345658,-0
 .522086,-0.883346\H,0,1.904244,0.070913,-0.879357\H,0,3.932135,1.22176
 ,2.980082\H,0,5.28092,1.595925,1.9075\H,0,3.792711,2.540594,1.848395\H
 ,0,5.374584,-0.64325,0.891407\H,0,3.984642,-1.403324,0.174983\H,0,4.96
 1565,-2.324757,2.354635\H,0,4.250121,-0.975721,3.182259\H,0,1.985724,-
 1.764045,2.562723\H,0,2.895638,-2.94811,3.437249\H,0,2.135502,-3.00918
 1,0.481856\H,0,2.579482,-5.276386,0.485828\H,0,3.971519,-4.889909,3.18
 2881\H,0,4.191817,-6.202016,2.066382\H,0,2.965623,-6.85691,4.102952\H,
 0,1.714584,-5.707921,3.766998\H,0,2.42081,-7.979938,1.860503\H,0,1.083
 167,-6.875737,1.704087\H,0,0.891187,-9.872528,1.556434\H,0,-0.36551,-8
 .684705,1.299714\H,0,-0.597925,-9.98679,2.472891\H,0,2.435807,-8.84784
 ,4.327205\H,0,1.585188,-11.616367,6.31792\H,0,1.981002,-9.957975,6.752
 844\H,0,2.97817,-10.810647,5.57862\H,0,-1.730263,-7.831365,2.685667\H,
 0,-3.24021,-6.362494,3.623002\H,0,-1.998054,-5.755067,4.713054\H,0,-2.
 799425,-7.276973,5.068907\H,0,4.797824,1.660165,-0.479464\H,0,2.991484
 ,1.715972,-3.498879\H,0,4.618371,1.887095,-2.823357\H,0,3.365936,3.052
 187,-2.419105\\Version=EM64L-G09RevA.02\State=1-A\HF=-1295.2158469\RMS
 D=5.305e-09\Dipole=2.6462135,1.72816,-3.1020722\Quadrupole=1.6369562,0
 .1818008,-1.818757,12.5608614,-0.4264221,-17.5523049\PG=C01 [X(C20H36N
 4O4)]\\@


 PERICLES, SOPHOCLES,
 PELOPONESIAN WAR,
 FRENCH VERBS, LATIN VERBS
 H2SO4.
 Job cpu time:  0 days  0 hours  6 minutes 21.9 seconds.
 File lengths (MBytes):  RWF=    132 Int=      0 D2E=      0 Chk=     10 Scr=      1
 Normal termination of Gaussian 09 at Thu Dec  5 16:28:39 2019.
