 Entering Gaussian System, Link 0=g09
 Input=PSI_-120.gau
 Output=PSI_-120.log
 Initial command:
 /home/marie/Utilities//g09/l1.exe /tmp/g09/Gau-4172.inp -scrdir=/tmp/g09/
 Entering Link 1 = /home/marie/Utilities//g09/l1.exe PID=      4174.
  
 Copyright (c) 1988,1990,1992,1993,1995,1998,2003,2009, Gaussian, Inc.
                  All Rights Reserved.
  
 This is part of the Gaussian(R) 09 program.  It is based on
 the Gaussian(R) 03 system (copyright 2003, Gaussian, Inc.),
 the Gaussian(R) 98 system (copyright 1998, Gaussian, Inc.),
 the Gaussian(R) 94 system (copyright 1995, Gaussian, Inc.),
 the Gaussian 92(TM) system (copyright 1992, Gaussian, Inc.),
 the Gaussian 90(TM) system (copyright 1990, Gaussian, Inc.),
 the Gaussian 88(TM) system (copyright 1988, Gaussian, Inc.),
 the Gaussian 86(TM) system (copyright 1986, Carnegie Mellon
 University), and the Gaussian 82(TM) system (copyright 1983,
 Carnegie Mellon University). Gaussian is a federally registered
 trademark of Gaussian, Inc.
  
 This software contains proprietary and confidential information,
 including trade secrets, belonging to Gaussian, Inc.
  
 This software is provided under written license and may be
 used, copied, transmitted, or stored only in accord with that
 written license.
  
 The following legend is applicable only to US Government
 contracts under FAR:
  
                    RESTRICTED RIGHTS LEGEND
  
 Use, reproduction and disclosure by the US Government is
 subject to restrictions as set forth in subparagraphs (a)
 and (c) of the Commercial Computer Software - Restricted
 Rights clause in FAR 52.227-19.
  
 Gaussian, Inc.
 340 Quinnipiac St., Bldg. 40, Wallingford CT 06492
  
  
 ---------------------------------------------------------------
 Warning -- This program may not be used in any manner that
 competes with the business of Gaussian, Inc. or will provide
 assistance to any competitor of Gaussian, Inc.  The licensee
 of this program is prohibited from giving any competitor of
 Gaussian, Inc. access to this program.  By using this program,
 the user acknowledges that Gaussian, Inc. is engaged in the
 business of creating and licensing software in the field of
 computational chemistry and represents and warrants to the
 licensee that it is not a competitor of Gaussian, Inc. and that
 it will not use this program in any manner prohibited above.
 ---------------------------------------------------------------
  

 Cite this work as:
 Gaussian 09, Revision A.02,
 M. J. Frisch, G. W. Trucks, H. B. Schlegel, G. E. Scuseria, 
 M. A. Robb, J. R. Cheeseman, G. Scalmani, V. Barone, B. Mennucci, 
 G. A. Petersson, H. Nakatsuji, M. Caricato, X. Li, H. P. Hratchian, 
 A. F. Izmaylov, J. Bloino, G. Zheng, J. L. Sonnenberg, M. Hada, 
 M. Ehara, K. Toyota, R. Fukuda, J. Hasegawa, M. Ishida, T. Nakajima, 
 Y. Honda, O. Kitao, H. Nakai, T. Vreven, J. A. Montgomery, Jr., 
 J. E. Peralta, F. Ogliaro, M. Bearpark, J. J. Heyd, E. Brothers, 
 K. N. Kudin, V. N. Staroverov, R. Kobayashi, J. Normand, 
 K. Raghavachari, A. Rendell, J. C. Burant, S. S. Iyengar, J. Tomasi, 
 M. Cossi, N. Rega, J. M. Millam, M. Klene, J. E. Knox, J. B. Cross, 
 V. Bakken, C. Adamo, J. Jaramillo, R. Gomperts, R. E. Stratmann, 
 O. Yazyev, A. J. Austin, R. Cammi, C. Pomelli, J. W. Ochterski, 
 R. L. Martin, K. Morokuma, V. G. Zakrzewski, G. A. Voth, 
 P. Salvador, J. J. Dannenberg, S. Dapprich, A. D. Daniels, 
 O. Farkas, J. B. Foresman, J. V. Ortiz, J. Cioslowski, 
 and D. J. Fox, Gaussian, Inc., Wallingford CT, 2009.
 
 ******************************************
 Gaussian 09:  EM64L-G09RevA.02 11-Jun-2009
                 5-Dec-2019 
 ******************************************
 %chk=PSI_-120
 %NoSave
 ---------------------------------
 #SP HF/6-31G* Geom=(ModRedundant)
 ---------------------------------
 1/18=120,38=1/1;
 2/12=2,17=6,18=5,40=1/2;
 3/5=1,6=6,7=1,11=9,16=1,25=1,30=1/1,2,3;
 4//1;
 5/5=2,38=5/2;
 6/7=2,8=2,9=2,10=2,28=1/1;
 99/5=1,9=1/99;
 ------------
 paramfit run
 ------------
 Symbolic Z-matrix:
 Charge =  0 Multiplicity = 1
 C-CT--0.3208          0.        0.        0. 
 N-N--0.5622           1.44819   0.        0. 
 C-C-0.8053            2.1232    0.47592   1.07237 
 O-O--0.6151           1.59018   0.69673   2.12445 
 C-CX-0.0839           3.65051   0.59414   0.92154 
 C-CU--0.3230          4.33932  -0.2759    1.97813 
 C-CU--0.0657          4.0785    0.18893  -0.5152 
 C-CU--0.0109          3.7748   -1.23639  -1.01104 
 C-CU-0.0816           2.36218  -1.5164   -1.56126 
 C-CM--0.2354          1.9593   -0.61761  -2.70675 
 C-CM--0.2653          2.00658  -0.89033  -4.00063 
 C-CU-0.1214           2.47646  -2.16839  -4.65297 
 C-CU--0.0354          1.34054  -3.0857   -5.1406 
 C-CU--0.0984          0.45586  -2.41952  -6.20288 
 C-CU-0.1300          -0.61573  -3.29037  -6.90856 
 C-CU--0.3561         -1.3965   -2.37877  -7.86918 
 N-N--0.7186           0.06064  -4.33161  -7.67006 
 C-C-0.8537           -0.63501  -5.33573  -8.27907 
 C-CT--0.3868          0.19759  -6.5266   -8.6955 
 O-O--0.6323          -1.81776  -5.28403  -8.47291 
 C-C-0.7903           -1.48701  -3.96961  -5.82771 
 O-O--0.6136          -1.11903  -4.98634  -5.30352 
 N-N--0.5650          -2.60645  -3.32426  -5.43481 
 C-CT--0.3231         -3.49427  -3.92894  -4.46304 
 N-N--0.7191           4.07182   1.99643   1.05393 
 C-C-0.8539            3.85628   2.74922   2.17041 
 C-CT--0.3903          4.66414   4.02799   2.24941 
 O-O--0.6290           3.07653   2.43203   3.02336 
 H-H1-0.1459          -0.40326   1.00615   0. 
 H-H1-0.1459          -0.36496  -0.516     0.87594 
 H-H1-0.1459          -0.34566  -0.52209  -0.88335 
 H-H-0.3572            1.90424   0.07091  -0.87936 
 H-HC-0.0997           4.02154  -1.30479   1.90501 
 H-HC-0.0997           5.41543  -0.22653   1.84104 
 H-HC-0.0997           4.09455   0.07303   2.97074 
 H-HC-0.0347           5.15851   0.3149   -0.54558 
 H-HC-0.0347           3.66833   0.91191  -1.21331 
 H-HC-0.0243           4.48194  -1.44114  -1.80958 
 H-HC-0.0243           3.98926  -1.95545  -0.22725 
 H-HC-0.0171           1.6308   -1.42851  -0.76834 
 H-HC-0.0171           2.34061  -2.55432  -1.87445 
 H-HA-0.1313           1.58871   0.35314  -2.41963 
 H-HA-0.1359           1.67044  -0.12189  -4.67906 
 H-HC-0.0092           3.0983   -2.73304  -3.96891 
 H-HC-0.0092           3.11258  -1.9114   -5.49908 
 H-HC-0.0318           1.79286  -3.99407  -5.52874 
 H-HC-0.0318           0.73913  -3.39068  -4.29435 
 H-HC-0.0435           1.0845   -2.0055   -6.98834 
 H-HC-0.0435          -0.06231  -1.58386  -5.74735 
 H-HC-0.1066          -0.72297  -2.03493  -8.64553 
 H-HC-0.1066          -1.7764   -1.50111  -7.35657 
 H-HC-0.1066          -2.2141   -2.90322  -8.34058 
 H-H-0.3529            0.95577  -4.5953   -7.32669 
 H-HC-0.1047          -0.32546  -7.07096  -9.46696 
 H-HC-0.1047           0.32511  -7.17722  -7.83553 
 H-HC-0.1047           1.17902  -6.23379  -9.05247 
 H-H-0.3615           -2.99382  -2.63888  -6.03939 
 H-H1-0.1469          -4.25651  -3.20871  -4.19628 
 H-H1-0.1469          -2.93735  -4.19702  -3.57726 
 H-H1-0.1469          -3.96919  -4.82336  -4.8532 
 H-H-0.3570            4.83263   2.27278   0.47399 
 H-HC-0.1060           4.1666    4.7145    2.91883 
 H-HC-0.1060           4.79295   4.49288   1.27842 
 H-HC-0.1060           5.64693   3.80411   2.65165 
 
 The following ModRedundant input section has been read:
 D    *    3    5    * F                                                       
 Stoichiometry    C20H36N4O4
 Framework group  C1[X(C20H36N4O4)]
 Deg. of freedom   186
 Full point group                 C1      NOp   1
 Largest Abelian subgroup         C1      NOp   1
 Largest concise Abelian subgroup C1      NOp   1
                         Standard orientation:                         
 ---------------------------------------------------------------------
 Center     Atomic      Atomic             Coordinates (Angstroms)
 Number     Number       Type             X           Y           Z
 ---------------------------------------------------------------------
      1          6    20001001       -2.496783    2.404798    0.064392
      2          7    20001014       -3.059672    1.090786   -0.167502
      3          6    20001002       -4.385648    0.956580   -0.403902
      4          8    20001024       -5.094451    1.891832   -0.654197
      5          6    90000001       -4.925628   -0.483242   -0.472604
      6          6    90000002       -5.547589   -0.732785   -1.850550
      7          6    90000002       -3.787391   -1.495730   -0.171129
      8          6    90000002       -2.553091   -1.527526   -1.090436
      9          6    90000002       -1.439745   -0.493740   -0.828931
     10          6    20001004       -0.876089   -0.538405    0.571989
     11          6    20001004        0.232636   -1.136808    0.976214
     12          6    90000002        1.209194   -1.924800    0.136478
     13          6    90000002        2.497502   -1.161740   -0.220681
     14          6    90000002        3.305557   -0.751420    1.017705
     15          6    90000002        4.710912   -0.133732    0.798421
     16          6    90000002        5.273968    0.241979    2.178733
     17          7    20001014        5.567687   -1.137362    0.181822
     18          6    20001002        6.822319   -0.830276   -0.259376
     19          6    20001001        7.432985   -1.843421   -1.200347
     20          8    20001024        7.402939    0.166290    0.070594
     21          6    20001002        4.577998    1.055978   -0.179151
     22          8    20001024        4.562374    0.866508   -1.365653
     23          7    20001014        4.379394    2.280618    0.354510
     24          6    20001001        4.297390    3.445479   -0.502566
     25          7    20001014       -5.916799   -0.710366    0.589199
     26          6    20001002       -7.073694    0.001543    0.709413
     27          6    20001001       -8.110435   -0.607265    1.630632
     28          8    20001024       -7.256129    1.039695    0.139241
     29          1    20001035       -2.861342    2.842667    0.986518
     30          1    20001035       -2.754953    3.061888   -0.753107
     31          1    20001035       -1.418915    2.315163    0.114590
     32          1    20001029       -2.603699    0.317786    0.257755
     33          1    20001034       -4.835280   -0.548336   -2.640187
     34          1    20001034       -5.886987   -1.762447   -1.912521
     35          1    20001034       -6.389495   -0.074551   -2.008189
     36          1    20001034       -4.249298   -2.479253   -0.221579
     37          1    20001034       -3.470667   -1.361038    0.858349
     38          1    20001034       -2.113469   -2.514583   -0.980575
     39          1    20001034       -2.861065   -1.448866   -2.127903
     40          1    20001034       -1.805126    0.504628   -1.031719
     41          1    20001034       -0.654984   -0.678150   -1.554174
     42          1    20001033       -1.453755   -0.013775    1.315749
     43          1    20001033        0.482037   -1.057876    2.022794
     44          1    20001034        0.738866   -2.246049   -0.784964
     45          1    20001034        1.473440   -2.834101    0.674940
     46          1    20001034        3.088054   -1.797916   -0.874058
     47          1    20001034        2.244527   -0.287313   -0.805670
     48          1    20001034        3.445135   -1.617569    1.661007
     49          1    20001034        2.726922   -0.032775    1.586106
     50          1    20001034        5.425524   -0.666154    2.750489
     51          1    20001034        4.576342    0.861811    2.732364
     52          1    20001034        6.222638    0.751040    2.097362
     53          1    20001029        5.094766   -1.826184   -0.357233
     54          1    20001034        8.506098   -1.727344   -1.196446
     55          1    20001034        7.065310   -1.649424   -2.203495
     56          1    20001034        7.171779   -2.860855   -0.930194
     57          1    20001029        4.635481    2.430685    1.301720
     58          1    20001035        4.017254    4.299125    0.100536
     59          1    20001035        3.544947    3.287915   -1.261269
     60          1    20001035        5.242656    3.650798   -0.994572
     61          1    20001029       -5.913847   -1.621163    0.991676
     62          1    20001034       -8.782768    0.170590    1.962120
     63          1    20001034       -7.661582   -1.093119    2.489717
     64          1    20001034       -8.682898   -1.348392    1.082164
 ---------------------------------------------------------------------
 Rotational constants (GHZ):      0.4462443      0.0499038      0.0478517
 Standard basis: 6-31G(d) (6D, 7F)
 There are   492 symmetry adapted basis functions of A   symmetry.
 Integral buffers will be    131072 words long.
 Raffenetti 1 integral format.
 Two-electron integral symmetry is turned on.
   492 basis functions,   928 primitive gaussians,   492 cartesian basis functions
   108 alpha electrons      108 beta electrons
       nuclear repulsion energy      2711.5448780452 Hartrees.
 NAtoms=   64 NActive=   64 NUniq=   64 SFac= 7.50D-01 NAtFMM=   80 NAOKFM=F Big=T
 One-electron integrals computed using PRISM.
 NBasis=   492 RedAO= T  NBF=   492
 NBsUse=   492 1.00D-06 NBFU=   492
 Harris functional with IExCor=  205 diagonalized for initial guess.
 ExpMin= 1.61D-01 ExpMax= 5.48D+03 ExpMxC= 8.25D+02 IAcc=1 IRadAn=         1 AccDes= 0.00D+00
 HarFok:  IExCor=  205 AccDes= 0.00D+00 IRadAn=         1 IDoV= 1
 ScaDFX=  1.000000  1.000000  1.000000  1.000000
 FoFCou: FMM=F IPFlag=           0 FMFlag=      100000 FMFlg1=           1
         NFxFlg=           0 DoJE=T BraDBF=F KetDBF=T FulRan=T
         Omega=  0.000000  0.000000  1.000000  0.000000  0.000000 ICntrl=     500 IOpCl=  0
         NMat0=    1 NMatS0=    1 NMatT0=    0 NMatD0=    1 NMtDS0=    0 NMtDT0=    0
         I1Cent=           4 NGrid=           0.
 Petite list used in FoFCou.
 Initial guess orbital symmetries:
       Occupied  (A) (A) (A) (A) (A) (A) (A) (A) (A) (A) (A) (A)
                 (A) (A) (A) (A) (A) (A) (A) (A) (A) (A) (A) (A)
                 (A) (A) (A) (A) (A) (A) (A) (A) (A) (A) (A) (A)
                 (A) (A) (A) (A) (A) (A) (A) (A) (A) (A) (A) (A)
                 (A) (A) (A) (A) (A) (A) (A) (A) (A) (A) (A) (A)
                 (A) (A) (A) (A) (A) (A) (A) (A) (A) (A) (A) (A)
                 (A) (A) (A) (A) (A) (A) (A) (A) (A) (A) (A) (A)
                 (A) (A) (A) (A) (A) (A) (A) (A) (A) (A) (A) (A)
                 (A) (A) (A) (A) (A) (A) (A) (A) (A) (A) (A) (A)
       Virtual   (A) (A) (A) (A) (A) (A) (A) (A) (A) (A) (A) (A)
                 (A) (A) (A) (A) (A) (A) (A) (A) (A) (A) (A) (A)
                 (A) (A) (A) (A) (A) (A) (A) (A) (A) (A) (A) (A)
                 (A) (A) (A) (A) (A) (A) (A) (A) (A) (A) (A) (A)
                 (A) (A) (A) (A) (A) (A) (A) (A) (A) (A) (A) (A)
                 (A) (A) (A) (A) (A) (A) (A) (A) (A) (A) (A) (A)
                 (A) (A) (A) (A) (A) (A) (A) (A) (A) (A) (A) (A)
                 (A) (A) (A) (A) (A) (A) (A) (A) (A) (A) (A) (A)
                 (A) (A) (A) (A) (A) (A) (A) (A) (A) (A) (A) (A)
                 (A) (A) (A) (A) (A) (A) (A) (A) (A) (A) (A) (A)
                 (A) (A) (A) (A) (A) (A) (A) (A) (A) (A) (A) (A)
                 (A) (A) (A) (A) (A) (A) (A) (A) (A) (A) (A) (A)
                 (A) (A) (A) (A) (A) (A) (A) (A) (A) (A) (A) (A)
                 (A) (A) (A) (A) (A) (A) (A) (A) (A) (A) (A) (A)
                 (A) (A) (A) (A) (A) (A) (A) (A) (A) (A) (A) (A)
                 (A) (A) (A) (A) (A) (A) (A) (A) (A) (A) (A) (A)
                 (A) (A) (A) (A) (A) (A) (A) (A) (A) (A) (A) (A)
                 (A) (A) (A) (A) (A) (A) (A) (A) (A) (A) (A) (A)
                 (A) (A) (A) (A) (A) (A) (A) (A) (A) (A) (A) (A)
                 (A) (A) (A) (A) (A) (A) (A) (A) (A) (A) (A) (A)
                 (A) (A) (A) (A) (A) (A) (A) (A) (A) (A) (A) (A)
                 (A) (A) (A) (A) (A) (A) (A) (A) (A) (A) (A) (A)
                 (A) (A) (A) (A) (A) (A) (A) (A) (A) (A) (A) (A)
                 (A) (A) (A) (A) (A) (A) (A) (A) (A) (A) (A) (A)
                 (A) (A) (A) (A) (A) (A) (A) (A) (A) (A) (A) (A)
                 (A) (A) (A) (A) (A) (A) (A) (A) (A) (A) (A) (A)
                 (A) (A) (A) (A) (A) (A) (A) (A) (A) (A) (A) (A)
                 (A) (A) (A) (A) (A) (A) (A) (A) (A) (A) (A) (A)
                 (A) (A) (A) (A) (A) (A) (A) (A) (A) (A) (A) (A)
                 (A) (A) (A) (A) (A) (A) (A) (A) (A) (A) (A) (A)
                 (A) (A) (A) (A) (A) (A) (A) (A) (A) (A) (A) (A)
                 (A) (A) (A) (A) (A) (A) (A) (A) (A) (A) (A) (A)
 The electronic state of the initial guess is 1-A.
 Requested convergence on RMS density matrix=1.00D-08 within 128 cycles.
 Requested convergence on MAX density matrix=1.00D-06.
 Requested convergence on             energy=1.00D-06.
 No special actions if energy rises.
 Integral accuracy reduced to 1.0D-05 until final iterations.
 Initial convergence to 1.0D-05 achieved.  Increase integral accuracy.
 SCF Done:  E(RHF) =  -1295.51397608     A.U. after   15 cycles
             Convg  =    0.4620D-08             -V/T =  2.0008

 **********************************************************************

            Population analysis using the SCF density.

 **********************************************************************

 Orbital symmetries:
       Occupied  (A) (A) (A) (A) (A) (A) (A) (A) (A) (A) (A) (A)
                 (A) (A) (A) (A) (A) (A) (A) (A) (A) (A) (A) (A)
                 (A) (A) (A) (A) (A) (A) (A) (A) (A) (A) (A) (A)
                 (A) (A) (A) (A) (A) (A) (A) (A) (A) (A) (A) (A)
                 (A) (A) (A) (A) (A) (A) (A) (A) (A) (A) (A) (A)
                 (A) (A) (A) (A) (A) (A) (A) (A) (A) (A) (A) (A)
                 (A) (A) (A) (A) (A) (A) (A) (A) (A) (A) (A) (A)
                 (A) (A) (A) (A) (A) (A) (A) (A) (A) (A) (A) (A)
                 (A) (A) (A) (A) (A) (A) (A) (A) (A) (A) (A) (A)
       Virtual   (A) (A) (A) (A) (A) (A) (A) (A) (A) (A) (A) (A)
                 (A) (A) (A) (A) (A) (A) (A) (A) (A) (A) (A) (A)
                 (A) (A) (A) (A) (A) (A) (A) (A) (A) (A) (A) (A)
                 (A) (A) (A) (A) (A) (A) (A) (A) (A) (A) (A) (A)
                 (A) (A) (A) (A) (A) (A) (A) (A) (A) (A) (A) (A)
                 (A) (A) (A) (A) (A) (A) (A) (A) (A) (A) (A) (A)
                 (A) (A) (A) (A) (A) (A) (A) (A) (A) (A) (A) (A)
                 (A) (A) (A) (A) (A) (A) (A) (A) (A) (A) (A) (A)
                 (A) (A) (A) (A) (A) (A) (A) (A) (A) (A) (A) (A)
                 (A) (A) (A) (A) (A) (A) (A) (A) (A) (A) (A) (A)
                 (A) (A) (A) (A) (A) (A) (A) (A) (A) (A) (A) (A)
                 (A) (A) (A) (A) (A) (A) (A) (A) (A) (A) (A) (A)
                 (A) (A) (A) (A) (A) (A) (A) (A) (A) (A) (A) (A)
                 (A) (A) (A) (A) (A) (A) (A) (A) (A) (A) (A) (A)
                 (A) (A) (A) (A) (A) (A) (A) (A) (A) (A) (A) (A)
                 (A) (A) (A) (A) (A) (A) (A) (A) (A) (A) (A) (A)
                 (A) (A) (A) (A) (A) (A) (A) (A) (A) (A) (A) (A)
                 (A) (A) (A) (A) (A) (A) (A) (A) (A) (A) (A) (A)
                 (A) (A) (A) (A) (A) (A) (A) (A) (A) (A) (A) (A)
                 (A) (A) (A) (A) (A) (A) (A) (A) (A) (A) (A) (A)
                 (A) (A) (A) (A) (A) (A) (A) (A) (A) (A) (A) (A)
                 (A) (A) (A) (A) (A) (A) (A) (A) (A) (A) (A) (A)
                 (A) (A) (A) (A) (A) (A) (A) (A) (A) (A) (A) (A)
                 (A) (A) (A) (A) (A) (A) (A) (A) (A) (A) (A) (A)
                 (A) (A) (A) (A) (A) (A) (A) (A) (A) (A) (A) (A)
                 (A) (A) (A) (A) (A) (A) (A) (A) (A) (A) (A) (A)
                 (A) (A) (A) (A) (A) (A) (A) (A) (A) (A) (A) (A)
                 (A) (A) (A) (A) (A) (A) (A) (A) (A) (A) (A) (A)
                 (A) (A) (A) (A) (A) (A) (A) (A) (A) (A) (A) (A)
                 (A) (A) (A) (A) (A) (A) (A) (A) (A) (A) (A) (A)
                 (A) (A) (A) (A) (A) (A) (A) (A) (A) (A) (A) (A)
                 (A) (A) (A) (A) (A) (A) (A) (A) (A) (A) (A) (A)
 The electronic state is 1-A.
 Alpha  occ. eigenvalues --  -20.52490 -20.52160 -20.50546 -20.50264 -15.58444
 Alpha  occ. eigenvalues --  -15.58095 -15.58033 -15.56890 -11.34698 -11.34241
 Alpha  occ. eigenvalues --  -11.33546 -11.32768 -11.29157 -11.28765 -11.25489
 Alpha  occ. eigenvalues --  -11.25486 -11.24288 -11.24153 -11.24138 -11.23910
 Alpha  occ. eigenvalues --  -11.23683 -11.23641 -11.23274 -11.22902 -11.22692
 Alpha  occ. eigenvalues --  -11.22304 -11.21500 -11.21257  -1.39871  -1.38597
 Alpha  occ. eigenvalues --   -1.38533  -1.36831  -1.24636  -1.24071  -1.23199
 Alpha  occ. eigenvalues --   -1.23155  -1.11979  -1.09781  -1.07915  -1.05014
 Alpha  occ. eigenvalues --   -1.01507  -0.99317  -0.98663  -0.96145  -0.95866
 Alpha  occ. eigenvalues --   -0.95229  -0.93213  -0.87887  -0.86170  -0.84716
 Alpha  occ. eigenvalues --   -0.82479  -0.80012  -0.78706  -0.77405  -0.77364
 Alpha  occ. eigenvalues --   -0.73638  -0.71949  -0.70616  -0.68516  -0.67922
 Alpha  occ. eigenvalues --   -0.66810  -0.65538  -0.64845  -0.64194  -0.64158
 Alpha  occ. eigenvalues --   -0.62796  -0.62390  -0.62002  -0.61912  -0.61615
 Alpha  occ. eigenvalues --   -0.60864  -0.59918  -0.59338  -0.59179  -0.58998
 Alpha  occ. eigenvalues --   -0.57605  -0.57109  -0.57045  -0.56812  -0.56482
 Alpha  occ. eigenvalues --   -0.55705  -0.55355  -0.55271  -0.55008  -0.54013
 Alpha  occ. eigenvalues --   -0.53834  -0.53215  -0.53110  -0.52466  -0.51465
 Alpha  occ. eigenvalues --   -0.50359  -0.50319  -0.50080  -0.49402  -0.49277
 Alpha  occ. eigenvalues --   -0.48495  -0.47804  -0.47212  -0.45904  -0.42549
 Alpha  occ. eigenvalues --   -0.42050  -0.41519  -0.39363  -0.38838  -0.38657
 Alpha  occ. eigenvalues --   -0.37128  -0.36618  -0.35203
 Alpha virt. eigenvalues --    0.15485   0.19129   0.20042   0.20885   0.21056
 Alpha virt. eigenvalues --    0.21210   0.21266   0.22381   0.22997   0.23584
 Alpha virt. eigenvalues --    0.25169   0.25543   0.25771   0.26767   0.27107
 Alpha virt. eigenvalues --    0.27347   0.28060   0.28819   0.29202   0.29728
 Alpha virt. eigenvalues --    0.30718   0.30816   0.30937   0.31319   0.31335
 Alpha virt. eigenvalues --    0.31738   0.32427   0.33063   0.33152   0.33524
 Alpha virt. eigenvalues --    0.33616   0.33826   0.34285   0.34727   0.34808
 Alpha virt. eigenvalues --    0.35306   0.35876   0.35934   0.36678   0.36989
 Alpha virt. eigenvalues --    0.37847   0.38847   0.38941   0.39356   0.40600
 Alpha virt. eigenvalues --    0.41216   0.41752   0.41848   0.42994   0.43698
 Alpha virt. eigenvalues --    0.44256   0.44819   0.45416   0.46675   0.47411
 Alpha virt. eigenvalues --    0.47976   0.48498   0.49506   0.51746   0.52287
 Alpha virt. eigenvalues --    0.53166   0.55630   0.57278   0.59097   0.60642
 Alpha virt. eigenvalues --    0.61910   0.63647   0.65044   0.68758   0.69452
 Alpha virt. eigenvalues --    0.70488   0.71313   0.71675   0.72155   0.73083
 Alpha virt. eigenvalues --    0.74793   0.75125   0.75456   0.76033   0.76376
 Alpha virt. eigenvalues --    0.76612   0.77494   0.78015   0.78170   0.79070
 Alpha virt. eigenvalues --    0.79678   0.80145   0.81663   0.83202   0.83749
 Alpha virt. eigenvalues --    0.84531   0.84640   0.84796   0.85946   0.86686
 Alpha virt. eigenvalues --    0.87483   0.88697   0.89091   0.89864   0.90582
 Alpha virt. eigenvalues --    0.91821   0.91867   0.92513   0.92946   0.94691
 Alpha virt. eigenvalues --    0.94928   0.95793   0.96386   0.97294   0.98348
 Alpha virt. eigenvalues --    0.98587   0.99439   0.99772   1.00496   1.00603
 Alpha virt. eigenvalues --    1.01434   1.01766   1.02347   1.03407   1.03558
 Alpha virt. eigenvalues --    1.04466   1.05416   1.05971   1.06805   1.07023
 Alpha virt. eigenvalues --    1.07790   1.07950   1.09029   1.09947   1.11809
 Alpha virt. eigenvalues --    1.12146   1.12821   1.13291   1.13761   1.13968
 Alpha virt. eigenvalues --    1.14336   1.14499   1.14792   1.15093   1.15471
 Alpha virt. eigenvalues --    1.15822   1.16139   1.16536   1.17506   1.17900
 Alpha virt. eigenvalues --    1.18177   1.18600   1.18873   1.19090   1.19498
 Alpha virt. eigenvalues --    1.20022   1.20404   1.20902   1.21120   1.21483
 Alpha virt. eigenvalues --    1.21887   1.22238   1.22306   1.22745   1.23098
 Alpha virt. eigenvalues --    1.23711   1.24133   1.24650   1.25111   1.25701
 Alpha virt. eigenvalues --    1.26753   1.27656   1.27932   1.28934   1.29450
 Alpha virt. eigenvalues --    1.30029   1.30346   1.30499   1.30865   1.32595
 Alpha virt. eigenvalues --    1.33602   1.34155   1.35206   1.37408   1.38227
 Alpha virt. eigenvalues --    1.38752   1.41394   1.41596   1.42846   1.44060
 Alpha virt. eigenvalues --    1.44494   1.46694   1.46775   1.48543   1.49381
 Alpha virt. eigenvalues --    1.52021   1.53086   1.53936   1.54964   1.56792
 Alpha virt. eigenvalues --    1.57778   1.59330   1.60372   1.60485   1.61840
 Alpha virt. eigenvalues --    1.64103   1.65861   1.68045   1.69236   1.70115
 Alpha virt. eigenvalues --    1.71244   1.72738   1.73167   1.74271   1.74983
 Alpha virt. eigenvalues --    1.77824   1.78084   1.79312   1.79925   1.81246
 Alpha virt. eigenvalues --    1.81816   1.85254   1.86930   1.87770   1.89002
 Alpha virt. eigenvalues --    1.89901   1.90928   1.92889   1.95008   1.95451
 Alpha virt. eigenvalues --    1.97374   1.98445   2.00578   2.02595   2.03213
 Alpha virt. eigenvalues --    2.04067   2.05781   2.06497   2.07272   2.07810
 Alpha virt. eigenvalues --    2.09293   2.10433   2.11639   2.11728   2.11908
 Alpha virt. eigenvalues --    2.13783   2.14498   2.15736   2.16144   2.16688
 Alpha virt. eigenvalues --    2.17410   2.18485   2.18683   2.19651   2.20631
 Alpha virt. eigenvalues --    2.21437   2.21675   2.22248   2.23955   2.24264
 Alpha virt. eigenvalues --    2.24503   2.25219   2.26244   2.26968   2.27135
 Alpha virt. eigenvalues --    2.28349   2.30059   2.30292   2.31219   2.32297
 Alpha virt. eigenvalues --    2.33320   2.33513   2.34192   2.36242   2.36407
 Alpha virt. eigenvalues --    2.37504   2.37808   2.38878   2.39031   2.39246
 Alpha virt. eigenvalues --    2.40062   2.41404   2.42223   2.43146   2.43796
 Alpha virt. eigenvalues --    2.45841   2.46893   2.47396   2.49528   2.50199
 Alpha virt. eigenvalues --    2.51731   2.52114   2.54384   2.55095   2.55647
 Alpha virt. eigenvalues --    2.56742   2.57307   2.58767   2.59235   2.60629
 Alpha virt. eigenvalues --    2.61331   2.62689   2.63677   2.64581   2.64968
 Alpha virt. eigenvalues --    2.67087   2.67381   2.68646   2.69772   2.71804
 Alpha virt. eigenvalues --    2.72919   2.73967   2.74860   2.75591   2.76077
 Alpha virt. eigenvalues --    2.77275   2.77531   2.78902   2.79507   2.80318
 Alpha virt. eigenvalues --    2.81936   2.82460   2.84425   2.85834   2.86786
 Alpha virt. eigenvalues --    2.87952   2.90500   2.90985   2.93578   2.95253
 Alpha virt. eigenvalues --    2.96382   2.97445   2.98229   3.01288   3.02866
 Alpha virt. eigenvalues --    3.03141   3.04898   3.05327   3.06972   3.07547
 Alpha virt. eigenvalues --    3.09592   3.10486   3.12577   3.15022   3.15779
 Alpha virt. eigenvalues --    3.17284   3.18173   3.22581   3.27029   3.30074
 Alpha virt. eigenvalues --    3.33883   3.38239   3.40017   3.40616   3.41231
 Alpha virt. eigenvalues --    3.42185   3.46665   3.55186   3.57090   3.57339
 Alpha virt. eigenvalues --    3.58211   4.37907   4.43121   4.48650   4.50995
 Alpha virt. eigenvalues --    4.51421   4.54926   4.57229   4.60568   4.62470
 Alpha virt. eigenvalues --    4.64697   4.66198   4.67008   4.69538   4.69867
 Alpha virt. eigenvalues --    4.71709   4.77528   4.80745   4.82859   4.85592
 Alpha virt. eigenvalues --    4.88978   4.92318   4.93492   4.95724   5.00765
 Alpha virt. eigenvalues --    5.03470   5.04095   5.22976   5.29978
          Condensed to atoms (all electrons):
 Mulliken atomic charges:
              1
     1  C   -0.285346
     2  N   -0.894201
     3  C    0.790304
     4  O   -0.565454
     5  C    0.131628
     6  C   -0.483339
     7  C   -0.405488
     8  C   -0.288366
     9  C   -0.483530
    10  C   -0.191677
    11  C   -0.182111
    12  C   -0.356481
    13  C   -0.312449
    14  C   -0.330077
    15  C    0.091357
    16  C   -0.509848
    17  N   -0.787431
    18  C    0.767191
    19  C   -0.595896
    20  O   -0.612915
    21  C    0.819812
    22  O   -0.639165
    23  N   -0.806738
    24  C   -0.275949
    25  N   -0.821977
    26  C    0.736214
    27  C   -0.587922
    28  O   -0.550859
    29  H    0.183961
    30  H    0.212291
    31  H    0.168889
    32  H    0.437068
    33  H    0.167091
    34  H    0.150660
    35  H    0.236280
    36  H    0.175036
    37  H    0.184143
    38  H    0.174689
    39  H    0.179548
    40  H    0.296483
    41  H    0.181504
    42  H    0.193935
    43  H    0.179029
    44  H    0.182738
    45  H    0.165506
    46  H    0.155435
    47  H    0.199317
    48  H    0.175237
    49  H    0.183033
    50  H    0.184638
    51  H    0.148482
    52  H    0.228269
    53  H    0.389388
    54  H    0.212489
    55  H    0.209506
    56  H    0.176654
    57  H    0.396244
    58  H    0.166144
    59  H    0.197697
    60  H    0.186874
    61  H    0.375089
    62  H    0.216391
    63  H    0.170996
    64  H    0.189976
 Sum of Mulliken atomic charges =   0.00000
 Mulliken charges with hydrogens summed into heavy atoms:
              1
     1  C    0.279795
     2  N   -0.457133
     3  C    0.790304
     4  O   -0.565454
     5  C    0.131628
     6  C    0.070693
     7  C   -0.046310
     8  C    0.065871
     9  C   -0.005542
    10  C    0.002259
    11  C   -0.003082
    12  C   -0.008237
    13  C    0.042303
    14  C    0.028193
    15  C    0.091357
    16  C    0.051541
    17  N   -0.398043
    18  C    0.767191
    19  C    0.002754
    20  O   -0.612915
    21  C    0.819812
    22  O   -0.639165
    23  N   -0.410494
    24  C    0.274766
    25  N   -0.446888
    26  C    0.736214
    27  C   -0.010559
    28  O   -0.550859
 Sum of Mulliken charges with hydrogens summed into heavy atoms =   0.00000
 Electronic spatial extent (au):  <R**2>=          21739.5355
 Charge=              0.0000 electrons
 Dipole moment (field-independent basis, Debye):
    X=              1.4256    Y=             -6.1806    Z=              3.7349  Tot=              7.3608
 Quadrupole moment (field-independent basis, Debye-Ang):
   XX=           -224.8069   YY=           -162.1136   ZZ=           -168.5202
   XY=             25.8557   XZ=             -5.4957   YZ=              7.2459
 Traceless Quadrupole moment (field-independent basis, Debye-Ang):
   XX=            -39.6600   YY=             23.0333   ZZ=             16.6267
   XY=             25.8557   XZ=             -5.4957   YZ=              7.2459
 Octapole moment (field-independent basis, Debye-Ang**2):
  XXX=            -59.0545  YYY=             32.8916  ZZZ=              5.8235  XYY=             91.9155
  XXY=           -315.1884  XXZ=             92.0387  XZZ=            -14.4739  YZZ=              4.6152
  YYZ=              3.5438  XYZ=             25.0604
 Hexadecapole moment (field-independent basis, Debye-Ang**3):
 XXXX=         -28089.7577 YYYY=          -2191.5649 ZZZZ=          -1183.6979 XXXY=            874.6968
 XXXZ=           -801.0113 YYYX=            175.7250 YYYZ=              8.0636 ZZZX=              1.8259
 ZZZY=              5.0646 XXYY=          -4432.9992 XXZZ=          -4195.2260 YYZZ=           -570.2341
 XXYZ=            201.8288 YYXZ=            -50.5313 ZZXY=             -8.4112
 N-N= 2.711544878045D+03 E-N=-8.454996086772D+03  KE= 1.294469291492D+03
 1\1\GINC-MOSURA\SP\RHF\6-31G(d)\C20H36N4O4\MARIE\05-Dec-2019\0\\#SP HF
 /6-31G* Geom=(ModRedundant)\\paramfit run\\0,1\C,0,0.,0.,0.\N,0,1.4481
 87,0.,0.\C,0,2.1232,0.47592,1.072365\O,0,1.590179,0.696732,2.124447\C,
 0,3.650505,0.594143,0.921539\C,0,4.339321,-0.275904,1.978134\C,0,4.078
 496,0.188932,-0.515204\C,0,3.774798,-1.23639,-1.011044\C,0,2.362178,-1
 .516397,-1.56126\C,0,1.959295,-0.617606,-2.706746\C,0,2.006584,-0.8903
 3,-4.000632\C,0,2.47646,-2.168385,-4.652971\C,0,1.340542,-3.085705,-5.
 140595\C,0,0.455861,-2.419524,-6.202884\C,0,-0.615725,-3.290373,-6.908
 555\C,0,-1.396503,-2.378765,-7.869184\N,0,0.060637,-4.331609,-7.670063
 \C,0,-0.635006,-5.335725,-8.27907\C,0,0.197589,-6.526596,-8.695501\O,0
 ,-1.817755,-5.284028,-8.472914\C,0,-1.487011,-3.969606,-5.827709\O,0,-
 1.119032,-4.986337,-5.303516\N,0,-2.606447,-3.324258,-5.434809\C,0,-3.
 494268,-3.928944,-4.463041\N,0,4.071816,1.996427,1.053934\C,0,3.856284
 ,2.749215,2.170414\C,0,4.664138,4.027985,2.249415\O,0,3.076526,2.43203
 2,3.023357\H,0,-0.403259,1.006147,0.\H,0,-0.36496,-0.516002,0.875939\H
 ,0,-0.345658,-0.522086,-0.883346\H,0,1.904244,0.070913,-0.879357\H,0,4
 .02154,-1.304787,1.90501\H,0,5.415427,-0.22653,1.841042\H,0,4.094551,0
 .073026,2.970738\H,0,5.15851,0.3149,-0.545581\H,0,3.66833,0.911907,-1.
 21331\H,0,4.481938,-1.441135,-1.809575\H,0,3.989258,-1.955446,-0.22724
 6\H,0,1.630799,-1.428512,-0.768338\H,0,2.340609,-2.55432,-1.874446\H,0
 ,1.588706,0.353137,-2.419629\H,0,1.670441,-0.121886,-4.679059\H,0,3.09
 8302,-2.73304,-3.968908\H,0,3.112583,-1.9114,-5.499081\H,0,1.792861,-3
 .994068,-5.528741\H,0,0.739131,-3.39068,-4.294353\H,0,1.084499,-2.0055
 03,-6.988336\H,0,-0.062311,-1.583862,-5.747345\H,0,-0.72297,-2.034933,
 -8.64553\H,0,-1.776402,-1.501109,-7.356566\H,0,-2.214103,-2.903224,-8.
 340577\H,0,0.955774,-4.595299,-7.326686\H,0,-0.325461,-7.070963,-9.466
 957\H,0,0.325107,-7.177219,-7.835527\H,0,1.179025,-6.233785,-9.05247\H
 ,0,-2.993821,-2.638884,-6.039385\H,0,-4.256512,-3.208705,-4.196281\H,0
 ,-2.937351,-4.197017,-3.577261\H,0,-3.969191,-4.823357,-4.853204\H,0,4
 .832632,2.272783,0.473992\H,0,4.166598,4.714504,2.918832\H,0,4.792953,
 4.492884,1.278423\H,0,5.646932,3.804105,2.651652\\Version=EM64L-G09Rev
 A.02\State=1-A\HF=-1295.5139761\RMSD=4.620e-09\Dipole=1.7530522,0.7878
 974,-2.166266\Quadrupole=24.5764911,3.9928747,-28.5693658,-3.4472763,-
 3.201849,-18.2422725\PG=C01 [X(C20H36N4O4)]\\@


 ... SUBJECTS WHICH DISCLOSE THEIR FULL POWER, MEANING AND BEAUTY AS SOON
 AS THEY ARE PRESENTED TO THE MIND HAVE VERY LITTLE OF THOSE QUALITIES
 TO DISCLOSE.
                           -- CHARLES DUTTON (1882)
 Job cpu time:  0 days  0 hours  5 minutes 54.1 seconds.
 File lengths (MBytes):  RWF=    132 Int=      0 D2E=      0 Chk=     10 Scr=      1
 Normal termination of Gaussian 09 at Thu Dec  5 16:33:21 2019.
