 Entering Gaussian System, Link 0=g09
 Input=PSI_10.gau
 Output=PSI_10.log
 Initial command:
 /home/marie/Utilities//g09/l1.exe /tmp/g09/Gau-4389.inp -scrdir=/tmp/g09/
 Entering Link 1 = /home/marie/Utilities//g09/l1.exe PID=      4391.
  
 Copyright (c) 1988,1990,1992,1993,1995,1998,2003,2009, Gaussian, Inc.
                  All Rights Reserved.
  
 This is part of the Gaussian(R) 09 program.  It is based on
 the Gaussian(R) 03 system (copyright 2003, Gaussian, Inc.),
 the Gaussian(R) 98 system (copyright 1998, Gaussian, Inc.),
 the Gaussian(R) 94 system (copyright 1995, Gaussian, Inc.),
 the Gaussian 92(TM) system (copyright 1992, Gaussian, Inc.),
 the Gaussian 90(TM) system (copyright 1990, Gaussian, Inc.),
 the Gaussian 88(TM) system (copyright 1988, Gaussian, Inc.),
 the Gaussian 86(TM) system (copyright 1986, Carnegie Mellon
 University), and the Gaussian 82(TM) system (copyright 1983,
 Carnegie Mellon University). Gaussian is a federally registered
 trademark of Gaussian, Inc.
  
 This software contains proprietary and confidential information,
 including trade secrets, belonging to Gaussian, Inc.
  
 This software is provided under written license and may be
 used, copied, transmitted, or stored only in accord with that
 written license.
  
 The following legend is applicable only to US Government
 contracts under FAR:
  
                    RESTRICTED RIGHTS LEGEND
  
 Use, reproduction and disclosure by the US Government is
 subject to restrictions as set forth in subparagraphs (a)
 and (c) of the Commercial Computer Software - Restricted
 Rights clause in FAR 52.227-19.
  
 Gaussian, Inc.
 340 Quinnipiac St., Bldg. 40, Wallingford CT 06492
  
  
 ---------------------------------------------------------------
 Warning -- This program may not be used in any manner that
 competes with the business of Gaussian, Inc. or will provide
 assistance to any competitor of Gaussian, Inc.  The licensee
 of this program is prohibited from giving any competitor of
 Gaussian, Inc. access to this program.  By using this program,
 the user acknowledges that Gaussian, Inc. is engaged in the
 business of creating and licensing software in the field of
 computational chemistry and represents and warrants to the
 licensee that it is not a competitor of Gaussian, Inc. and that
 it will not use this program in any manner prohibited above.
 ---------------------------------------------------------------
  

 Cite this work as:
 Gaussian 09, Revision A.02,
 M. J. Frisch, G. W. Trucks, H. B. Schlegel, G. E. Scuseria, 
 M. A. Robb, J. R. Cheeseman, G. Scalmani, V. Barone, B. Mennucci, 
 G. A. Petersson, H. Nakatsuji, M. Caricato, X. Li, H. P. Hratchian, 
 A. F. Izmaylov, J. Bloino, G. Zheng, J. L. Sonnenberg, M. Hada, 
 M. Ehara, K. Toyota, R. Fukuda, J. Hasegawa, M. Ishida, T. Nakajima, 
 Y. Honda, O. Kitao, H. Nakai, T. Vreven, J. A. Montgomery, Jr., 
 J. E. Peralta, F. Ogliaro, M. Bearpark, J. J. Heyd, E. Brothers, 
 K. N. Kudin, V. N. Staroverov, R. Kobayashi, J. Normand, 
 K. Raghavachari, A. Rendell, J. C. Burant, S. S. Iyengar, J. Tomasi, 
 M. Cossi, N. Rega, J. M. Millam, M. Klene, J. E. Knox, J. B. Cross, 
 V. Bakken, C. Adamo, J. Jaramillo, R. Gomperts, R. E. Stratmann, 
 O. Yazyev, A. J. Austin, R. Cammi, C. Pomelli, J. W. Ochterski, 
 R. L. Martin, K. Morokuma, V. G. Zakrzewski, G. A. Voth, 
 P. Salvador, J. J. Dannenberg, S. Dapprich, A. D. Daniels, 
 O. Farkas, J. B. Foresman, J. V. Ortiz, J. Cioslowski, 
 and D. J. Fox, Gaussian, Inc., Wallingford CT, 2009.
 
 ******************************************
 Gaussian 09:  EM64L-G09RevA.02 11-Jun-2009
                 5-Dec-2019 
 ******************************************
 %chk=PSI_10
 %NoSave
 ---------------------------------
 #SP HF/6-31G* Geom=(ModRedundant)
 ---------------------------------
 1/18=120,38=1/1;
 2/12=2,17=6,18=5,40=1/2;
 3/5=1,6=6,7=1,11=9,16=1,25=1,30=1/1,2,3;
 4//1;
 5/5=2,38=5/2;
 6/7=2,8=2,9=2,10=2,28=1/1;
 99/5=1,9=1/99;
 ------------
 paramfit run
 ------------
 Symbolic Z-matrix:
 Charge =  0 Multiplicity = 1
 C-CT--0.3208          0.        0.        0. 
 N-N--0.5622           1.44819   0.        0. 
 C-C-0.8053            2.1232    0.47592   1.07237 
 O-O--0.6151           1.59018   0.69673   2.12445 
 C-CX-0.0839           3.65051   0.59414   0.92154 
 C-CU--0.3230          4.04096   0.36334  -0.54206 
 C-CU--0.0657          4.13139   1.98194   1.42588 
 C-CU--0.0109          3.60003   3.2521    0.73741 
 C-CU-0.0816           2.22281   3.78357   1.18176 
 C-CM--0.2354          2.12573   4.07917   2.6601 
 C-CM--0.2653          2.24772   5.25366   3.25713 
 C-CU-0.1214           2.51551   6.59025   2.60784 
 C-CU--0.0354          1.27401   7.49072   2.47594 
 C-CU--0.0984          0.65243   7.84518   3.83348 
 C-CU-0.1300          -0.49507   8.88788   3.85899 
 C-CU--0.3561         -0.97651   9.01364   5.31359 
 N-N--0.7186           0.03238   10.16922   3.41009 
 C-C-0.8537           -0.78519   11.24047   3.19319 
 C-CT--0.3868         -0.17026   12.35782   2.38189 
 O-O--0.6323          -1.90792   11.29819   3.61188 
 C-C-0.7903           -1.58923   8.43933   2.86383 
 O-O--0.6136          -1.4871    8.69656   1.6945 
 N-N--0.5650          -2.59056   7.67115   3.34466 
 C-CT--0.3231         -3.6749    7.25883   2.47725 
 N-N--0.7191           4.32854  -0.37479   1.79496 
 C-C-0.8539            4.15662  -1.7246    1.70489 
 C-CT--0.3903          5.192    -2.55471   2.43496 
 O-O--0.6290           3.24715  -2.22174   1.10334 
 H-H1-0.1459          -0.40326   1.00615   0. 
 H-H1-0.1459          -0.36496  -0.516     0.87594 
 H-H1-0.1459          -0.34566  -0.52209  -0.88335 
 H-H-0.3572            1.90424   0.07091  -0.87936 
 H-HC-0.0997           3.53261   1.05527  -1.19607 
 H-HC-0.0997           5.11339   0.49192  -0.65436 
 H-HC-0.0997           3.77217  -0.63658  -0.85004 
 H-HC-0.0347           5.2122    1.9798    1.30308 
 H-HC-0.0347           3.94687   2.04292   2.49383 
 H-HC-0.0243           4.32871   4.03399   0.93046 
 H-HC-0.0243           3.58596   3.11264  -0.33857 
 H-HC-0.0171           1.44766   3.07877   0.91015 
 H-HC-0.0171           2.02554   4.68151   0.60678 
 H-HA-0.1313           1.93      3.22424   3.28691 
 H-HA-0.1359           2.14246   5.27436   4.33056 
 H-HC-0.0092           2.93944   6.4505    1.62081 
 H-HC-0.0092           3.27225   7.11302   3.19149 
 H-HC-0.0318           1.57207   8.3883    1.94126 
 H-HC-0.0318           0.54148   6.99998   1.84874 
 H-HC-0.0435           1.4272    8.22129   4.49815 
 H-HC-0.0435           0.26884   6.93827   4.28594 
 H-HC-0.1066          -0.17296   9.42941   5.91026 
 H-HC-0.1066          -1.2227    8.04298   5.73144 
 H-HC-0.1066          -1.83076   9.66881   5.3957 
 H-H-0.3529            0.81728   10.11579   2.80199 
 H-HC-0.1047          -0.71118   13.27215   2.57288 
 H-HC-0.1047          -0.26303   12.11184   1.32832 
 H-HC-0.1047           0.88083   12.49738   2.61016 
 H-H-0.3615           -2.76984   7.68482   4.32087 
 H-H1-0.1469          -4.30042   6.55858   3.01511 
 H-H1-0.1469          -3.2752    6.77224   1.59969 
 H-H1-0.1469          -4.27748   8.10265   2.15691 
 H-H-0.3570            5.18383  -0.06363   2.19896 
 H-HC-0.1060           4.77708  -3.53138   2.63729 
 H-HC-0.1060           5.50859  -2.09254   3.36325 
 H-HC-0.1060           6.06436  -2.67441   1.80056 
 
 The following ModRedundant input section has been read:
 D    *    3    5    * F                                                       
 Stoichiometry    C20H36N4O4
 Framework group  C1[X(C20H36N4O4)]
 Deg. of freedom   186
 Full point group                 C1      NOp   1
 Largest Abelian subgroup         C1      NOp   1
 Largest concise Abelian subgroup C1      NOp   1
                         Standard orientation:                         
 ---------------------------------------------------------------------
 Center     Atomic      Atomic             Coordinates (Angstroms)
 Number     Number       Type             X           Y           Z
 ---------------------------------------------------------------------
      1          6    20001001       -4.114751    3.211498   -0.803872
      2          7    20001014       -4.682697    1.887623   -0.952328
      3          6    20001002       -4.316681    0.897233   -0.105411
      4          8    20001024       -3.710414    1.106496    0.908687
      5          6    90000001       -4.837659   -0.512861   -0.436473
      6          6    90000002       -5.474627   -0.510448   -1.830069
      7          6    90000002       -3.681630   -1.545453   -0.341861
      8          6    90000002       -2.459502   -1.385081   -1.263989
      9          6    90000002       -1.357077   -0.400646   -0.825599
     10          6    20001004       -0.774043   -0.697274    0.536150
     11          6    20001004        0.348162   -1.342807    0.809467
     12          6    90000002        1.324079   -1.944216   -0.173206
     13          6    90000002        2.596831   -1.107278   -0.395031
     14          6    90000002        3.415764   -0.922703    0.889569
     15          6    90000002        4.809398   -0.252447    0.774738
     16          6    90000002        5.385767   -0.132318    2.194886
     17          7    20001014        5.671532   -1.109286   -0.027810
     18          6    20001002        6.915759   -0.705068   -0.417120
     19          6    20001001        7.527592   -1.514586   -1.537454
     20          8    20001024        7.486992    0.221464    0.087235
     21          6    20001002        4.646960    1.096703    0.038439
     22          8    20001024        4.617968    1.132076   -1.162325
     23          7    20001014        4.438715    2.196692    0.793846
     24          6    20001001        4.329141    3.499731    0.170721
     25          7    20001014       -5.811218   -0.950286    0.574601
     26          6    20001002       -6.976083   -0.292042    0.838183
     27          6    20001001       -7.991840   -1.078836    1.640253
     28          8    20001024       -7.180459    0.831311    0.474248
     29          1    20001035       -3.050719    3.219329   -1.010570
     30          1    20001035       -4.271003    3.564640    0.204889
     31          1    20001035       -4.615849    3.881640   -1.491014
     32          1    20001029       -4.963551    1.611462   -1.863998
     33          1    20001034       -4.775625   -0.170276   -2.578810
     34          1    20001034       -5.800616   -1.515702   -2.079934
     35          1    20001034       -6.327563    0.152052   -1.852816
     36          1    20001034       -4.130586   -2.509506   -0.570472
     37          1    20001034       -3.352954   -1.600456    0.691206
     38          1    20001034       -2.004889   -2.368096   -1.345397
     39          1    20001034       -2.782475   -1.118880   -2.265087
     40          1    20001034       -1.738870    0.612037   -0.834148
     41          1    20001034       -0.579690   -0.433659   -1.580856
     42          1    20001033       -1.348810   -0.330217    1.371032
     43          1    20001033        0.610524   -1.456856    1.849620
     44          1    20001034        0.845853   -2.095112   -1.133411
     45          1    20001034        1.608052   -2.933764    0.182811
     46          1    20001034        3.187235   -1.600587   -1.162132
     47          1    20001034        2.323982   -0.143110   -0.803394
     48          1    20001034        3.575908   -1.891458    1.357970
     49          1    20001034        2.834995   -0.332318    1.588499
     50          1    20001034        5.557502   -1.128751    2.585027
     51          1    20001034        4.687191    0.361857    2.862091
     52          1    20001034        6.326154    0.398139    2.200071
     53          1    20001029        5.200923   -1.692735   -0.681131
     54          1    20001034        8.598960   -1.384077   -1.523344
     55          1    20001034        7.143802   -1.142466   -2.482629
     56          1    20001034        7.284082   -2.568639   -1.459622
     57          1    20001029        4.705445    2.171192    1.749625
     58          1    20001035        4.045424    4.221026    0.925810
     59          1    20001035        3.568789    3.474676   -0.596002
     60          1    20001035        5.264778    3.808520   -0.284238
     61          1    20001029       -5.790304   -1.920085    0.799546
     62          1    20001034       -8.670297   -0.387524    2.118539
     63          1    20001034       -7.524809   -1.709409    2.388457
     64          1    20001034       -8.561377   -1.713499    0.968963
 ---------------------------------------------------------------------
 Rotational constants (GHZ):      0.4035804      0.0488204      0.0467425
 Standard basis: 6-31G(d) (6D, 7F)
 There are   492 symmetry adapted basis functions of A   symmetry.
 Integral buffers will be    131072 words long.
 Raffenetti 1 integral format.
 Two-electron integral symmetry is turned on.
   492 basis functions,   928 primitive gaussians,   492 cartesian basis functions
   108 alpha electrons      108 beta electrons
       nuclear repulsion energy      2675.9450181030 Hartrees.
 NAtoms=   64 NActive=   64 NUniq=   64 SFac= 7.50D-01 NAtFMM=   80 NAOKFM=F Big=T
 One-electron integrals computed using PRISM.
 NBasis=   492 RedAO= T  NBF=   492
 NBsUse=   492 1.00D-06 NBFU=   492
 Harris functional with IExCor=  205 diagonalized for initial guess.
 ExpMin= 1.61D-01 ExpMax= 5.48D+03 ExpMxC= 8.25D+02 IAcc=1 IRadAn=         1 AccDes= 0.00D+00
 HarFok:  IExCor=  205 AccDes= 0.00D+00 IRadAn=         1 IDoV= 1
 ScaDFX=  1.000000  1.000000  1.000000  1.000000
 FoFCou: FMM=F IPFlag=           0 FMFlag=      100000 FMFlg1=           1
         NFxFlg=           0 DoJE=T BraDBF=F KetDBF=T FulRan=T
         Omega=  0.000000  0.000000  1.000000  0.000000  0.000000 ICntrl=     500 IOpCl=  0
         NMat0=    1 NMatS0=    1 NMatT0=    0 NMatD0=    1 NMtDS0=    0 NMtDT0=    0
         I1Cent=           4 NGrid=           0.
 Petite list used in FoFCou.
 Initial guess orbital symmetries:
       Occupied  (A) (A) (A) (A) (A) (A) (A) (A) (A) (A) (A) (A)
                 (A) (A) (A) (A) (A) (A) (A) (A) (A) (A) (A) (A)
                 (A) (A) (A) (A) (A) (A) (A) (A) (A) (A) (A) (A)
                 (A) (A) (A) (A) (A) (A) (A) (A) (A) (A) (A) (A)
                 (A) (A) (A) (A) (A) (A) (A) (A) (A) (A) (A) (A)
                 (A) (A) (A) (A) (A) (A) (A) (A) (A) (A) (A) (A)
                 (A) (A) (A) (A) (A) (A) (A) (A) (A) (A) (A) (A)
                 (A) (A) (A) (A) (A) (A) (A) (A) (A) (A) (A) (A)
                 (A) (A) (A) (A) (A) (A) (A) (A) (A) (A) (A) (A)
       Virtual   (A) (A) (A) (A) (A) (A) (A) (A) (A) (A) (A) (A)
                 (A) (A) (A) (A) (A) (A) (A) (A) (A) (A) (A) (A)
                 (A) (A) (A) (A) (A) (A) (A) (A) (A) (A) (A) (A)
                 (A) (A) (A) (A) (A) (A) (A) (A) (A) (A) (A) (A)
                 (A) (A) (A) (A) (A) (A) (A) (A) (A) (A) (A) (A)
                 (A) (A) (A) (A) (A) (A) (A) (A) (A) (A) (A) (A)
                 (A) (A) (A) (A) (A) (A) (A) (A) (A) (A) (A) (A)
                 (A) (A) (A) (A) (A) (A) (A) (A) (A) (A) (A) (A)
                 (A) (A) (A) (A) (A) (A) (A) (A) (A) (A) (A) (A)
                 (A) (A) (A) (A) (A) (A) (A) (A) (A) (A) (A) (A)
                 (A) (A) (A) (A) (A) (A) (A) (A) (A) (A) (A) (A)
                 (A) (A) (A) (A) (A) (A) (A) (A) (A) (A) (A) (A)
                 (A) (A) (A) (A) (A) (A) (A) (A) (A) (A) (A) (A)
                 (A) (A) (A) (A) (A) (A) (A) (A) (A) (A) (A) (A)
                 (A) (A) (A) (A) (A) (A) (A) (A) (A) (A) (A) (A)
                 (A) (A) (A) (A) (A) (A) (A) (A) (A) (A) (A) (A)
                 (A) (A) (A) (A) (A) (A) (A) (A) (A) (A) (A) (A)
                 (A) (A) (A) (A) (A) (A) (A) (A) (A) (A) (A) (A)
                 (A) (A) (A) (A) (A) (A) (A) (A) (A) (A) (A) (A)
                 (A) (A) (A) (A) (A) (A) (A) (A) (A) (A) (A) (A)
                 (A) (A) (A) (A) (A) (A) (A) (A) (A) (A) (A) (A)
                 (A) (A) (A) (A) (A) (A) (A) (A) (A) (A) (A) (A)
                 (A) (A) (A) (A) (A) (A) (A) (A) (A) (A) (A) (A)
                 (A) (A) (A) (A) (A) (A) (A) (A) (A) (A) (A) (A)
                 (A) (A) (A) (A) (A) (A) (A) (A) (A) (A) (A) (A)
                 (A) (A) (A) (A) (A) (A) (A) (A) (A) (A) (A) (A)
                 (A) (A) (A) (A) (A) (A) (A) (A) (A) (A) (A) (A)
                 (A) (A) (A) (A) (A) (A) (A) (A) (A) (A) (A) (A)
                 (A) (A) (A) (A) (A) (A) (A) (A) (A) (A) (A) (A)
                 (A) (A) (A) (A) (A) (A) (A) (A) (A) (A) (A) (A)
                 (A) (A) (A) (A) (A) (A) (A) (A) (A) (A) (A) (A)
                 (A) (A) (A) (A) (A) (A) (A) (A) (A) (A) (A) (A)
 The electronic state of the initial guess is 1-A.
 Requested convergence on RMS density matrix=1.00D-08 within 128 cycles.
 Requested convergence on MAX density matrix=1.00D-06.
 Requested convergence on             energy=1.00D-06.
 No special actions if energy rises.
 Integral accuracy reduced to 1.0D-05 until final iterations.
 Initial convergence to 1.0D-05 achieved.  Increase integral accuracy.
 SCF Done:  E(RHF) =  -1295.60872940     A.U. after   14 cycles
             Convg  =    0.3970D-08             -V/T =  2.0012

 **********************************************************************

            Population analysis using the SCF density.

 **********************************************************************

 Orbital symmetries:
       Occupied  (A) (A) (A) (A) (A) (A) (A) (A) (A) (A) (A) (A)
                 (A) (A) (A) (A) (A) (A) (A) (A) (A) (A) (A) (A)
                 (A) (A) (A) (A) (A) (A) (A) (A) (A) (A) (A) (A)
                 (A) (A) (A) (A) (A) (A) (A) (A) (A) (A) (A) (A)
                 (A) (A) (A) (A) (A) (A) (A) (A) (A) (A) (A) (A)
                 (A) (A) (A) (A) (A) (A) (A) (A) (A) (A) (A) (A)
                 (A) (A) (A) (A) (A) (A) (A) (A) (A) (A) (A) (A)
                 (A) (A) (A) (A) (A) (A) (A) (A) (A) (A) (A) (A)
                 (A) (A) (A) (A) (A) (A) (A) (A) (A) (A) (A) (A)
       Virtual   (A) (A) (A) (A) (A) (A) (A) (A) (A) (A) (A) (A)
                 (A) (A) (A) (A) (A) (A) (A) (A) (A) (A) (A) (A)
                 (A) (A) (A) (A) (A) (A) (A) (A) (A) (A) (A) (A)
                 (A) (A) (A) (A) (A) (A) (A) (A) (A) (A) (A) (A)
                 (A) (A) (A) (A) (A) (A) (A) (A) (A) (A) (A) (A)
                 (A) (A) (A) (A) (A) (A) (A) (A) (A) (A) (A) (A)
                 (A) (A) (A) (A) (A) (A) (A) (A) (A) (A) (A) (A)
                 (A) (A) (A) (A) (A) (A) (A) (A) (A) (A) (A) (A)
                 (A) (A) (A) (A) (A) (A) (A) (A) (A) (A) (A) (A)
                 (A) (A) (A) (A) (A) (A) (A) (A) (A) (A) (A) (A)
                 (A) (A) (A) (A) (A) (A) (A) (A) (A) (A) (A) (A)
                 (A) (A) (A) (A) (A) (A) (A) (A) (A) (A) (A) (A)
                 (A) (A) (A) (A) (A) (A) (A) (A) (A) (A) (A) (A)
                 (A) (A) (A) (A) (A) (A) (A) (A) (A) (A) (A) (A)
                 (A) (A) (A) (A) (A) (A) (A) (A) (A) (A) (A) (A)
                 (A) (A) (A) (A) (A) (A) (A) (A) (A) (A) (A) (A)
                 (A) (A) (A) (A) (A) (A) (A) (A) (A) (A) (A) (A)
                 (A) (A) (A) (A) (A) (A) (A) (A) (A) (A) (A) (A)
                 (A) (A) (A) (A) (A) (A) (A) (A) (A) (A) (A) (A)
                 (A) (A) (A) (A) (A) (A) (A) (A) (A) (A) (A) (A)
                 (A) (A) (A) (A) (A) (A) (A) (A) (A) (A) (A) (A)
                 (A) (A) (A) (A) (A) (A) (A) (A) (A) (A) (A) (A)
                 (A) (A) (A) (A) (A) (A) (A) (A) (A) (A) (A) (A)
                 (A) (A) (A) (A) (A) (A) (A) (A) (A) (A) (A) (A)
                 (A) (A) (A) (A) (A) (A) (A) (A) (A) (A) (A) (A)
                 (A) (A) (A) (A) (A) (A) (A) (A) (A) (A) (A) (A)
                 (A) (A) (A) (A) (A) (A) (A) (A) (A) (A) (A) (A)
                 (A) (A) (A) (A) (A) (A) (A) (A) (A) (A) (A) (A)
                 (A) (A) (A) (A) (A) (A) (A) (A) (A) (A) (A) (A)
                 (A) (A) (A) (A) (A) (A) (A) (A) (A) (A) (A) (A)
                 (A) (A) (A) (A) (A) (A) (A) (A) (A) (A) (A) (A)
                 (A) (A) (A) (A) (A) (A) (A) (A) (A) (A) (A) (A)
 The electronic state is 1-A.
 Alpha  occ. eigenvalues --  -20.52360 -20.51964 -20.51659 -20.51506 -15.58682
 Alpha  occ. eigenvalues --  -15.57790 -15.57441 -15.57415 -11.34869 -11.34174
 Alpha  occ. eigenvalues --  -11.33752 -11.33580 -11.29199 -11.28416 -11.24924
 Alpha  occ. eigenvalues --  -11.24850 -11.23527 -11.23381 -11.23189 -11.23019
 Alpha  occ. eigenvalues --  -11.22687 -11.22472 -11.22309 -11.22183 -11.22006
 Alpha  occ. eigenvalues --  -11.21714 -11.21627 -11.21442  -1.39521  -1.39280
 Alpha  occ. eigenvalues --   -1.38381  -1.38006  -1.24172  -1.23437  -1.22521
 Alpha  occ. eigenvalues --   -1.22508  -1.10592  -1.09184  -1.07070  -1.04273
 Alpha  occ. eigenvalues --   -1.00793  -0.99514  -0.98748  -0.95607  -0.94663
 Alpha  occ. eigenvalues --   -0.94289  -0.92319  -0.87782  -0.85694  -0.82844
 Alpha  occ. eigenvalues --   -0.81052  -0.79377  -0.78232  -0.76908  -0.76766
 Alpha  occ. eigenvalues --   -0.71684  -0.71212  -0.70929  -0.68459  -0.67810
 Alpha  occ. eigenvalues --   -0.66449  -0.65287  -0.64338  -0.64121  -0.63537
 Alpha  occ. eigenvalues --   -0.62437  -0.61989  -0.61770  -0.61368  -0.61035
 Alpha  occ. eigenvalues --   -0.60597  -0.60001  -0.59150  -0.58587  -0.58093
 Alpha  occ. eigenvalues --   -0.57648  -0.57225  -0.56684  -0.56309  -0.56128
 Alpha  occ. eigenvalues --   -0.55469  -0.55332  -0.54790  -0.54613  -0.54038
 Alpha  occ. eigenvalues --   -0.53846  -0.52969  -0.52479  -0.51880  -0.51477
 Alpha  occ. eigenvalues --   -0.51225  -0.50308  -0.49693  -0.48969  -0.48409
 Alpha  occ. eigenvalues --   -0.48161  -0.46903  -0.46201  -0.44243  -0.42052
 Alpha  occ. eigenvalues --   -0.41406  -0.41223  -0.40976  -0.38736  -0.38717
 Alpha  occ. eigenvalues --   -0.38182  -0.37873  -0.34104
 Alpha virt. eigenvalues --    0.17375   0.19274   0.19760   0.20096   0.20861
 Alpha virt. eigenvalues --    0.21698   0.22165   0.23114   0.23374   0.24438
 Alpha virt. eigenvalues --    0.25189   0.25407   0.26347   0.27131   0.27391
 Alpha virt. eigenvalues --    0.27927   0.28316   0.28836   0.29688   0.29761
 Alpha virt. eigenvalues --    0.29944   0.30508   0.30741   0.31218   0.31794
 Alpha virt. eigenvalues --    0.32246   0.32595   0.32936   0.33216   0.33567
 Alpha virt. eigenvalues --    0.34008   0.34470   0.34597   0.34905   0.35587
 Alpha virt. eigenvalues --    0.35698   0.36344   0.36959   0.37146   0.37382
 Alpha virt. eigenvalues --    0.38140   0.39081   0.39508   0.39765   0.40155
 Alpha virt. eigenvalues --    0.41062   0.41397   0.42061   0.42786   0.44217
 Alpha virt. eigenvalues --    0.44855   0.45041   0.45785   0.46324   0.46997
 Alpha virt. eigenvalues --    0.47445   0.48311   0.49271   0.52079   0.52296
 Alpha virt. eigenvalues --    0.53337   0.57284   0.57849   0.59230   0.59934
 Alpha virt. eigenvalues --    0.62157   0.63199   0.64948   0.69446   0.70187
 Alpha virt. eigenvalues --    0.71406   0.71760   0.71992   0.72653   0.73178
 Alpha virt. eigenvalues --    0.73531   0.75255   0.75383   0.76382   0.76756
 Alpha virt. eigenvalues --    0.77430   0.77576   0.78011   0.78765   0.79131
 Alpha virt. eigenvalues --    0.79497   0.80391   0.80810   0.81561   0.82391
 Alpha virt. eigenvalues --    0.84130   0.84368   0.84803   0.85738   0.86657
 Alpha virt. eigenvalues --    0.88188   0.88327   0.88675   0.90455   0.90931
 Alpha virt. eigenvalues --    0.92162   0.92448   0.92765   0.93364   0.94230
 Alpha virt. eigenvalues --    0.94925   0.95612   0.96342   0.97296   0.98467
 Alpha virt. eigenvalues --    0.98950   0.99857   1.00098   1.00369   1.00508
 Alpha virt. eigenvalues --    1.00955   1.01887   1.02563   1.02947   1.04003
 Alpha virt. eigenvalues --    1.04154   1.04930   1.05159   1.06544   1.07329
 Alpha virt. eigenvalues --    1.07594   1.07666   1.08533   1.10479   1.11232
 Alpha virt. eigenvalues --    1.11907   1.12810   1.13252   1.13632   1.14465
 Alpha virt. eigenvalues --    1.14519   1.14918   1.15278   1.15507   1.15766
 Alpha virt. eigenvalues --    1.16399   1.16651   1.16879   1.17488   1.17824
 Alpha virt. eigenvalues --    1.18382   1.18592   1.18793   1.19296   1.19691
 Alpha virt. eigenvalues --    1.19989   1.20148   1.20771   1.20987   1.21448
 Alpha virt. eigenvalues --    1.21991   1.22373   1.22636   1.23233   1.23478
 Alpha virt. eigenvalues --    1.23652   1.24011   1.24577   1.25459   1.26034
 Alpha virt. eigenvalues --    1.26695   1.26956   1.27678   1.28438   1.29465
 Alpha virt. eigenvalues --    1.30046   1.31174   1.31286   1.31603   1.31878
 Alpha virt. eigenvalues --    1.33052   1.34000   1.35722   1.36239   1.37967
 Alpha virt. eigenvalues --    1.38975   1.39561   1.41200   1.42103   1.44011
 Alpha virt. eigenvalues --    1.44642   1.44790   1.46781   1.48285   1.49034
 Alpha virt. eigenvalues --    1.49844   1.50850   1.52504   1.54424   1.55700
 Alpha virt. eigenvalues --    1.56860   1.58577   1.58847   1.60736   1.61604
 Alpha virt. eigenvalues --    1.63452   1.64792   1.67641   1.68100   1.69949
 Alpha virt. eigenvalues --    1.70474   1.71638   1.72701   1.73241   1.74472
 Alpha virt. eigenvalues --    1.75365   1.77159   1.77881   1.78756   1.79391
 Alpha virt. eigenvalues --    1.80767   1.82626   1.83730   1.85558   1.88797
 Alpha virt. eigenvalues --    1.89654   1.90488   1.91288   1.92138   1.93194
 Alpha virt. eigenvalues --    1.95857   1.96321   1.98561   1.99098   2.01981
 Alpha virt. eigenvalues --    2.04685   2.04855   2.06766   2.06944   2.07620
 Alpha virt. eigenvalues --    2.08753   2.09074   2.10356   2.11957   2.12427
 Alpha virt. eigenvalues --    2.13345   2.14038   2.14858   2.15761   2.16418
 Alpha virt. eigenvalues --    2.17614   2.17662   2.18846   2.19598   2.20345
 Alpha virt. eigenvalues --    2.20581   2.21322   2.22046   2.22781   2.23471
 Alpha virt. eigenvalues --    2.25168   2.25297   2.25933   2.27356   2.27768
 Alpha virt. eigenvalues --    2.28990   2.30156   2.30654   2.31956   2.32947
 Alpha virt. eigenvalues --    2.33760   2.34382   2.35179   2.35896   2.36365
 Alpha virt. eigenvalues --    2.37180   2.37434   2.38343   2.39199   2.39504
 Alpha virt. eigenvalues --    2.40387   2.41848   2.42629   2.43979   2.45077
 Alpha virt. eigenvalues --    2.45955   2.46189   2.47995   2.49009   2.50691
 Alpha virt. eigenvalues --    2.51432   2.53112   2.53996   2.54982   2.56217
 Alpha virt. eigenvalues --    2.57169   2.57848   2.58817   2.59786   2.59891
 Alpha virt. eigenvalues --    2.61582   2.63300   2.64251   2.64780   2.65282
 Alpha virt. eigenvalues --    2.66410   2.68250   2.69406   2.70308   2.71649
 Alpha virt. eigenvalues --    2.72620   2.73650   2.74686   2.75437   2.76512
 Alpha virt. eigenvalues --    2.77786   2.78230   2.78903   2.79658   2.79776
 Alpha virt. eigenvalues --    2.81220   2.82895   2.85121   2.86446   2.86630
 Alpha virt. eigenvalues --    2.88382   2.90938   2.91230   2.92150   2.94955
 Alpha virt. eigenvalues --    2.95944   2.97339   2.98673   2.99937   3.02132
 Alpha virt. eigenvalues --    3.03521   3.04645   3.05596   3.06516   3.08806
 Alpha virt. eigenvalues --    3.10292   3.11183   3.12241   3.13241   3.15356
 Alpha virt. eigenvalues --    3.15964   3.18567   3.22458   3.30698   3.32147
 Alpha virt. eigenvalues --    3.34195   3.34502   3.39635   3.40636   3.41726
 Alpha virt. eigenvalues --    3.42794   3.44005   3.55818   3.56357   3.57140
 Alpha virt. eigenvalues --    3.57689   4.38550   4.39612   4.45047   4.49288
 Alpha virt. eigenvalues --    4.50664   4.51984   4.55687   4.58736   4.62636
 Alpha virt. eigenvalues --    4.64154   4.65853   4.67214   4.69783   4.70218
 Alpha virt. eigenvalues --    4.70646   4.77703   4.80472   4.83961   4.86097
 Alpha virt. eigenvalues --    4.89479   4.93407   4.93596   4.94126   4.97631
 Alpha virt. eigenvalues --    5.00550   5.04656   5.23717   5.30014
          Condensed to atoms (all electrons):
 Mulliken atomic charges:
              1
     1  C   -0.280417
     2  N   -0.775097
     3  C    0.818348
     4  O   -0.628493
     5  C    0.126911
     6  C   -0.540442
     7  C   -0.338880
     8  C   -0.322978
     9  C   -0.358694
    10  C   -0.182758
    11  C   -0.179858
    12  C   -0.352674
    13  C   -0.309260
    14  C   -0.329517
    15  C    0.090502
    16  C   -0.510014
    17  N   -0.787403
    18  C    0.767385
    19  C   -0.595614
    20  O   -0.613955
    21  C    0.820759
    22  O   -0.641119
    23  N   -0.805098
    24  C   -0.274893
    25  N   -0.800661
    26  C    0.756175
    27  C   -0.590236
    28  O   -0.598692
    29  H    0.164745
    30  H    0.211480
    31  H    0.169735
    32  H    0.391562
    33  H    0.162048
    34  H    0.173144
    35  H    0.222050
    36  H    0.154298
    37  H    0.212346
    38  H    0.170966
    39  H    0.159884
    40  H    0.185074
    41  H    0.171029
    42  H    0.214326
    43  H    0.172920
    44  H    0.172127
    45  H    0.160039
    46  H    0.149001
    47  H    0.196806
    48  H    0.173530
    49  H    0.188045
    50  H    0.183704
    51  H    0.150132
    52  H    0.225955
    53  H    0.389525
    54  H    0.210984
    55  H    0.208574
    56  H    0.176353
    57  H    0.396086
    58  H    0.166012
    59  H    0.197471
    60  H    0.184201
    61  H    0.380501
    62  H    0.217927
    63  H    0.182829
    64  H    0.191264
 Sum of Mulliken atomic charges =   0.00000
 Mulliken charges with hydrogens summed into heavy atoms:
              1
     1  C    0.265542
     2  N   -0.383535
     3  C    0.818348
     4  O   -0.628493
     5  C    0.126911
     6  C    0.016801
     7  C    0.027764
     8  C    0.007873
     9  C   -0.002591
    10  C    0.031568
    11  C   -0.006938
    12  C   -0.020508
    13  C    0.036547
    14  C    0.032058
    15  C    0.090502
    16  C    0.049777
    17  N   -0.397878
    18  C    0.767385
    19  C    0.000297
    20  O   -0.613955
    21  C    0.820759
    22  O   -0.641119
    23  N   -0.409013
    24  C    0.272791
    25  N   -0.420160
    26  C    0.756175
    27  C    0.001784
    28  O   -0.598692
 Sum of Mulliken charges with hydrogens summed into heavy atoms =   0.00000
 Electronic spatial extent (au):  <R**2>=          22376.1759
 Charge=              0.0000 electrons
 Dipole moment (field-independent basis, Debye):
    X=             -2.9031    Y=             -4.6867    Z=             -1.2181  Tot=              5.6460
 Quadrupole moment (field-independent basis, Debye-Ang):
   XX=           -195.8632   YY=           -156.1420   ZZ=           -165.2007
   XY=             11.5124   XZ=             14.1032   YZ=              0.2518
 Traceless Quadrupole moment (field-independent basis, Debye-Ang):
   XX=            -23.4612   YY=             16.2600   ZZ=              7.2013
   XY=             11.5124   XZ=             14.1032   YZ=              0.2518
 Octapole moment (field-independent basis, Debye-Ang**2):
  XXX=           -260.7162  YYY=             55.0731  ZZZ=              5.8377  XYY=             16.7031
  XXY=           -245.7463  XXZ=            -20.4014  XZZ=             -8.4777  YZZ=              7.2339
  YYZ=             -1.6266  XYZ=             77.6645
 Hexadecapole moment (field-independent basis, Debye-Ang**3):
 XXXX=         -27785.3425 YYYY=          -2352.9900 ZZZZ=          -1290.6883 XXXY=            516.2871
 XXXZ=           -421.2922 YYYX=             72.9305 YYYZ=             -0.8494 ZZZX=              6.9901
 ZZZY=             -1.0288 XXYY=          -4321.8694 XXZZ=          -4173.5422 YYZZ=           -616.8536
 XXYZ=             16.4617 YYXZ=             37.6035 ZZXY=            -21.5487
 N-N= 2.675945018103D+03 E-N=-8.384288583597D+03  KE= 1.294036858435D+03
 1\1\GINC-MOSURA\SP\RHF\6-31G(d)\C20H36N4O4\MARIE\05-Dec-2019\0\\#SP HF
 /6-31G* Geom=(ModRedundant)\\paramfit run\\0,1\C,0,0.,0.,0.\N,0,1.4481
 87,0.,0.\C,0,2.1232,0.47592,1.072365\O,0,1.590179,0.696732,2.124447\C,
 0,3.650505,0.594143,0.921539\C,0,4.040963,0.363335,-0.542057\C,0,4.131
 393,1.981944,1.425877\C,0,3.600025,3.252098,0.737407\C,0,2.222808,3.78
 3567,1.181764\C,0,2.125726,4.079174,2.660097\C,0,2.247725,5.253664,3.2
 57129\C,0,2.515512,6.59025,2.607835\C,0,1.274013,7.490723,2.47594\C,0,
 0.652428,7.845177,3.833478\C,0,-0.495073,8.887883,3.85899\C,0,-0.97651
 ,9.01364,5.313588\N,0,0.032377,10.169218,3.410094\C,0,-0.785192,11.240
 474,3.193187\C,0,-0.170262,12.357822,2.381891\O,0,-1.907917,11.298187,
 3.611875\C,0,-1.589228,8.43933,2.863826\O,0,-1.487102,8.696556,1.69449
 6\N,0,-2.590563,7.671148,3.344665\C,0,-3.674899,7.258827,2.47725\N,0,4
 .328542,-0.374787,1.794963\C,0,4.156615,-1.724602,1.704893\C,0,5.19200
 5,-2.554714,2.434964\O,0,3.24715,-2.221737,1.103337\H,0,-0.403259,1.00
 6147,0.\H,0,-0.36496,-0.516002,0.875939\H,0,-0.345658,-0.522086,-0.883
 346\H,0,1.904244,0.070913,-0.879357\H,0,3.532614,1.055273,-1.196073\H,
 0,5.113386,0.49192,-0.654364\H,0,3.772166,-0.636575,-0.850038\H,0,5.21
 2197,1.979801,1.303075\H,0,3.946874,2.042918,2.493826\H,0,4.328715,4.0
 33994,0.93046\H,0,3.585962,3.11264,-0.33857\H,0,1.447661,3.078772,0.91
 0147\H,0,2.025537,4.681512,0.606775\H,0,1.930002,3.224238,3.286908\H,0
 ,2.142464,5.274361,4.330559\H,0,2.939437,6.450503,1.620808\H,0,3.27225
 4,7.113018,3.191487\H,0,1.57207,8.388303,1.941257\H,0,0.541476,6.99997
 5,1.848736\H,0,1.427204,8.221295,4.498151\H,0,0.268838,6.938265,4.2859
 37\H,0,-0.172956,9.429412,5.910258\H,0,-1.222696,8.042983,5.731437\H,0
 ,-1.830762,9.668812,5.395697\H,0,0.817278,10.115793,2.80199\H,0,-0.711
 18,13.272147,2.572884\H,0,-0.263034,12.111838,1.328321\H,0,0.880831,12
 .497383,2.610163\H,0,-2.769836,7.684823,4.320874\H,0,-4.300416,6.55857
 6,3.015114\H,0,-3.275204,6.772244,1.599693\H,0,-4.277478,8.10265,2.156
 912\H,0,5.183832,-0.063633,2.198956\H,0,4.777081,-3.531379,2.637291\H,
 0,5.508592,-2.092543,3.363253\H,0,6.064364,-2.674414,1.800564\\Version
 =EM64L-G09RevA.02\State=1-A\HF=-1295.6087294\RMSD=3.970e-09\Dipole=2.1
 826691,-0.2489663,-0.3288097\Quadrupole=14.4913688,-22.4081558,7.91678
 7,4.5113862,-2.3185652,3.1045555\PG=C01 [X(C20H36N4O4)]\\@


 THE TEST OF A FIRST RATE INTELLIGENCE IS THE ABILITY TO HOLD TWO OPPOSED
 IDEAS IN THE MIND AT THE SAME TIME, AND STILL RETAIN THE ABILITY TO FUNCTION.
 ONE SHOULD, FOR EXAMPLE, BE ABLE TO SEE THAT THINGS ARE HOPELESS AND YET BE
 DETERMINED TO MAKE THEM OTHERWISE.

                                                       -- F. SCOTT FITZGERALD
 Job cpu time:  0 days  0 hours  5 minutes  9.9 seconds.
 File lengths (MBytes):  RWF=    132 Int=      0 D2E=      0 Chk=     10 Scr=      1
 Normal termination of Gaussian 09 at Thu Dec  5 16:36:42 2019.
