 Entering Gaussian System, Link 0=g09
 Input=PSI_100.gau
 Output=PSI_100.log
 Initial command:
 /home/marie/Utilities//g09/l1.exe /tmp/g09/Gau-3573.inp -scrdir=/tmp/g09/
 Entering Link 1 = /home/marie/Utilities//g09/l1.exe PID=      3575.
  
 Copyright (c) 1988,1990,1992,1993,1995,1998,2003,2009, Gaussian, Inc.
                  All Rights Reserved.
  
 This is part of the Gaussian(R) 09 program.  It is based on
 the Gaussian(R) 03 system (copyright 2003, Gaussian, Inc.),
 the Gaussian(R) 98 system (copyright 1998, Gaussian, Inc.),
 the Gaussian(R) 94 system (copyright 1995, Gaussian, Inc.),
 the Gaussian 92(TM) system (copyright 1992, Gaussian, Inc.),
 the Gaussian 90(TM) system (copyright 1990, Gaussian, Inc.),
 the Gaussian 88(TM) system (copyright 1988, Gaussian, Inc.),
 the Gaussian 86(TM) system (copyright 1986, Carnegie Mellon
 University), and the Gaussian 82(TM) system (copyright 1983,
 Carnegie Mellon University). Gaussian is a federally registered
 trademark of Gaussian, Inc.
  
 This software contains proprietary and confidential information,
 including trade secrets, belonging to Gaussian, Inc.
  
 This software is provided under written license and may be
 used, copied, transmitted, or stored only in accord with that
 written license.
  
 The following legend is applicable only to US Government
 contracts under FAR:
  
                    RESTRICTED RIGHTS LEGEND
  
 Use, reproduction and disclosure by the US Government is
 subject to restrictions as set forth in subparagraphs (a)
 and (c) of the Commercial Computer Software - Restricted
 Rights clause in FAR 52.227-19.
  
 Gaussian, Inc.
 340 Quinnipiac St., Bldg. 40, Wallingford CT 06492
  
  
 ---------------------------------------------------------------
 Warning -- This program may not be used in any manner that
 competes with the business of Gaussian, Inc. or will provide
 assistance to any competitor of Gaussian, Inc.  The licensee
 of this program is prohibited from giving any competitor of
 Gaussian, Inc. access to this program.  By using this program,
 the user acknowledges that Gaussian, Inc. is engaged in the
 business of creating and licensing software in the field of
 computational chemistry and represents and warrants to the
 licensee that it is not a competitor of Gaussian, Inc. and that
 it will not use this program in any manner prohibited above.
 ---------------------------------------------------------------
  

 Cite this work as:
 Gaussian 09, Revision A.02,
 M. J. Frisch, G. W. Trucks, H. B. Schlegel, G. E. Scuseria, 
 M. A. Robb, J. R. Cheeseman, G. Scalmani, V. Barone, B. Mennucci, 
 G. A. Petersson, H. Nakatsuji, M. Caricato, X. Li, H. P. Hratchian, 
 A. F. Izmaylov, J. Bloino, G. Zheng, J. L. Sonnenberg, M. Hada, 
 M. Ehara, K. Toyota, R. Fukuda, J. Hasegawa, M. Ishida, T. Nakajima, 
 Y. Honda, O. Kitao, H. Nakai, T. Vreven, J. A. Montgomery, Jr., 
 J. E. Peralta, F. Ogliaro, M. Bearpark, J. J. Heyd, E. Brothers, 
 K. N. Kudin, V. N. Staroverov, R. Kobayashi, J. Normand, 
 K. Raghavachari, A. Rendell, J. C. Burant, S. S. Iyengar, J. Tomasi, 
 M. Cossi, N. Rega, J. M. Millam, M. Klene, J. E. Knox, J. B. Cross, 
 V. Bakken, C. Adamo, J. Jaramillo, R. Gomperts, R. E. Stratmann, 
 O. Yazyev, A. J. Austin, R. Cammi, C. Pomelli, J. W. Ochterski, 
 R. L. Martin, K. Morokuma, V. G. Zakrzewski, G. A. Voth, 
 P. Salvador, J. J. Dannenberg, S. Dapprich, A. D. Daniels, 
 O. Farkas, J. B. Foresman, J. V. Ortiz, J. Cioslowski, 
 and D. J. Fox, Gaussian, Inc., Wallingford CT, 2009.
 
 ******************************************
 Gaussian 09:  EM64L-G09RevA.02 11-Jun-2009
                 5-Dec-2019 
 ******************************************
 %chk=PSI_100
 %NoSave
 ---------------------------------
 #SP HF/6-31G* Geom=(ModRedundant)
 ---------------------------------
 1/18=120,38=1/1;
 2/12=2,17=6,18=5,40=1/2;
 3/5=1,6=6,7=1,11=9,16=1,25=1,30=1/1,2,3;
 4//1;
 5/5=2,38=5/2;
 6/7=2,8=2,9=2,10=2,28=1/1;
 99/5=1,9=1/99;
 ------------
 paramfit run
 ------------
 Symbolic Z-matrix:
 Charge =  0 Multiplicity = 1
 C-CT--0.3208          0.        0.        0. 
 N-N--0.5622           1.44819   0.        0. 
 C-C-0.8053            2.1232    0.47592   1.07237 
 O-O--0.6151           1.59018   0.69673   2.12445 
 C-CX-0.0839           3.65051   0.59414   0.92154 
 C-CU--0.3230          4.02459   2.0475    0.61226 
 C-CU--0.0657          4.35539   0.08765   2.20925 
 C-CU--0.0109          4.06756   0.79501   3.54583 
 C-CU-0.0816           2.7952    0.38389   4.3131 
 C-CM--0.2354          2.72092  -1.09021   4.63527 
 C-CM--0.2653          3.03343  -1.68282   5.77629 
 C-CU-0.1214           3.54314  -1.03164   7.03958 
 C-CU--0.0354          2.48044  -0.86743   8.14106 
 C-CU--0.0984          1.90251  -2.20899   8.61129 
 C-CU-0.1300           0.95391  -2.20336   9.83798 
 C-CU--0.3561          0.47214  -3.64636   10.05956 
 N-N--0.7186           1.70554  -1.75851   11.0036 
 C-C-0.8537            1.09168  -1.51753   12.19866 
 C-CT--0.3868          1.90828  -0.71324   13.1841 
 O-O--0.6323          -0.01214  -1.91132   12.45489 
 C-C-0.7903           -0.18111  -1.18727   9.57715 
 O-O--0.6136          -0.01188  -0.01894   9.80144 
 N-N--0.5650          -1.31055  -1.65071   8.9996 
 C-CT--0.3231         -2.43219  -0.76233   8.77397 
 N-N--0.7191           4.13142  -0.29954  -0.14217 
 C-C-0.8539            3.72887  -0.21371  -1.44227 
 C-CT--0.3903          4.58871  -0.97104  -2.43285 
 O-O--0.6290           2.75919   0.40457  -1.7793 
 H-H1-0.1459          -0.40326   1.00615   0. 
 H-H1-0.1459          -0.36496  -0.516     0.87594 
 H-H1-0.1459          -0.34566  -0.52209  -0.88335 
 H-H-0.3572            1.90424   0.07091  -0.87936 
 H-HC-0.0997           3.658     2.7165    1.3758 
 H-HC-0.0997           5.10508   2.13718   0.55117 
 H-HC-0.0997           3.59207   2.35536  -0.32852 
 H-HC-0.0347           5.42157   0.18687   2.01788 
 H-HC-0.0347           4.16254  -0.97565   2.31166 
 H-HC-0.0243           4.91721   0.59074   4.1908 
 H-HC-0.0243           4.05139   1.87019   3.40062 
 H-HC-0.0171           1.91484   0.66816   3.75138 
 H-HC-0.0171           2.76914   0.96832   5.22611 
 H-HA-0.1313           2.36651  -1.71764   3.8335 
 H-HA-0.1359           2.91149  -2.75356   5.82529 
 H-HC-0.0092           3.95631  -0.05492   6.81872 
 H-HC-0.0092           4.3673   -1.62854   7.42826 
 H-HC-0.0318           2.94114  -0.33408   8.9679 
 H-HC-0.0318           1.68658  -0.22733   7.77928 
 H-HC-0.0435           2.71722  -2.88815   8.8532 
 H-HC-0.0435           1.35765  -2.65833   7.78936 
 H-HC-0.1066           1.32348  -4.25793   10.33485 
 H-HC-0.1066           0.05215  -4.06447   9.15061 
 H-HC-0.1066          -0.25643  -3.70598   10.85415 
 H-H-0.3529            2.48139  -1.16797   10.80856 
 H-HC-0.1047           1.53111  -0.88702   14.1804 
 H-HC-0.1047           1.79561   0.34063   12.94791 
 H-HC-0.1047           2.96273  -0.96353   13.1408 
 H-H-0.3615           -1.50459  -2.62268   9.05364 
 H-H1-0.1469          -3.18097  -1.29057   8.19845 
 H-H1-0.1469          -2.10553   0.10343   8.21685 
 H-H1-0.1469          -2.8719   -0.42397   9.70666 
 H-H-0.3570            5.0194   -0.72022   0.01926 
 H-HC-0.1060           4.00596  -1.17004  -3.32042 
 H-HC-0.1060           4.96194  -1.90326  -2.02394 
 H-HC-0.1060           5.43965  -0.35651  -2.70863 
 
 The following ModRedundant input section has been read:
 D    *    3    5    * F                                                       
 Stoichiometry    C20H36N4O4
 Framework group  C1[X(C20H36N4O4)]
 Deg. of freedom   186
 Full point group                 C1      NOp   1
 Largest Abelian subgroup         C1      NOp   1
 Largest concise Abelian subgroup C1      NOp   1
                         Standard orientation:                         
 ---------------------------------------------------------------------
 Center     Atomic      Atomic             Coordinates (Angstroms)
 Number     Number       Type             X           Y           Z
 ---------------------------------------------------------------------
      1          6    20001001       -4.758115    3.134846    0.053195
      2          7    20001014       -5.088002    1.726653    0.126753
      3          6    20001002       -4.285797    0.813436   -0.468740
      4          8    20001024       -3.187920    1.083410   -0.870643
      5          6    90000001       -4.797181   -0.638319   -0.485438
      6          6    90000002       -5.407392   -0.951649   -1.855586
      7          6    90000002       -3.640856   -1.616127   -0.141337
      8          6    90000002       -2.401685   -1.658075   -1.053657
      9          6    90000002       -1.310057   -0.593443   -0.826627
     10          6    20001004       -0.752499   -0.574342    0.577311
     11          6    20001004        0.365721   -1.135162    1.008381
     12          6    90000002        1.361597   -1.934722    0.202968
     13          6    90000002        2.636473   -1.160353   -0.177304
     14          6    90000002        3.430281   -0.687963    1.048107
     15          6    90000002        4.824346   -0.051350    0.811571
     16          6    90000002        5.373187    0.386963    2.179089
     17          7    20001014        5.703588   -1.060335    0.236753
     18          6    20001002        6.954120   -0.745351   -0.210473
     19          6    20001001        7.589077   -1.780878   -1.110094
     20          8    20001024        7.513523    0.274160    0.084160
     21          6    20001002        4.672985    1.097958   -0.210636
     22          8    20001024        4.666877    0.863794   -1.389220
     23          7    20001014        4.447866    2.337620    0.275717
     24          6    20001001        4.347300    3.467629   -0.624931
     25          7    20001014       -5.788908   -0.844912    0.580032
     26          6    20001002       -6.960075   -0.151944    0.668554
     27          6    20001001       -7.989211   -0.746054    1.607721
     28          8    20001024       -7.159977    0.860265    0.058954
     29          1    20001035       -4.823944    3.512008   -0.960889
     30          1    20001035       -3.752319    3.293382    0.413701
     31          1    20001035       -5.446459    3.684465    0.682841
     32          1    20001029       -6.048077    1.486950    0.210922
     33          1    20001034       -4.694969   -0.782972   -2.648641
     34          1    20001034       -5.726287   -1.989406   -1.880166
     35          1    20001034       -6.261224   -0.316532   -2.041390
     36          1    20001034       -4.083193   -2.609769   -0.156648
     37          1    20001034       -3.331869   -1.436650    0.883649
     38          1    20001034       -1.943392   -2.631449   -0.904893
     39          1    20001034       -2.706056   -1.624521   -2.094621
     40          1    20001034       -1.693890    0.389206   -1.068368
     41          1    20001034       -0.518300   -0.789447   -1.541146
     42          1    20001033       -1.343946   -0.033647    1.298390
     43          1    20001033        0.608405   -1.012080    2.052276
     44          1    20001034        0.902156   -2.299560   -0.707676
     45          1    20001034        1.640932   -2.817772    0.776369
     46          1    20001034        3.242542   -1.808846   -0.803811
     47          1    20001034        2.369317   -0.313671   -0.795840
     48          1    20001034        3.583615   -1.526421    1.724132
     49          1    20001034        2.834930    0.039971    1.586644
     50          1    20001034        5.539668   -0.495894    2.785250
     51          1    20001034        4.660874    1.013269    2.706092
     52          1    20001034        6.312109    0.911219    2.082558
     53          1    20001029        5.246869   -1.778107   -0.277952
     54          1    20001034        8.659683   -1.643595   -1.106106
     55          1    20001034        7.222593   -1.631977   -2.121353
     56          1    20001034        7.346492   -2.792402   -0.802923
     57          1    20001029        4.696331    2.528173    1.217665
     58          1    20001035        4.047579    4.337631   -0.055559
     59          1    20001035        3.601805    3.266877   -1.380286
     60          1    20001035        5.290768    3.672928   -1.120384
     61          1    20001029       -5.770120   -1.739716    1.016517
     62          1    20001034       -8.678238    0.030289    1.906896
     63          1    20001034       -7.535155   -1.190359    2.486343
     64          1    20001034       -8.544383   -1.518401    1.085165
 ---------------------------------------------------------------------
 Rotational constants (GHZ):      0.4182819      0.0485195      0.0462896
 Standard basis: 6-31G(d) (6D, 7F)
 There are   492 symmetry adapted basis functions of A   symmetry.
 Integral buffers will be    131072 words long.
 Raffenetti 1 integral format.
 Two-electron integral symmetry is turned on.
   492 basis functions,   928 primitive gaussians,   492 cartesian basis functions
   108 alpha electrons      108 beta electrons
       nuclear repulsion energy      2686.8469243572 Hartrees.
 NAtoms=   64 NActive=   64 NUniq=   64 SFac= 7.50D-01 NAtFMM=   80 NAOKFM=F Big=T
 One-electron integrals computed using PRISM.
 NBasis=   492 RedAO= T  NBF=   492
 NBsUse=   492 1.00D-06 NBFU=   492
 Harris functional with IExCor=  205 diagonalized for initial guess.
 ExpMin= 1.61D-01 ExpMax= 5.48D+03 ExpMxC= 8.25D+02 IAcc=1 IRadAn=         1 AccDes= 0.00D+00
 HarFok:  IExCor=  205 AccDes= 0.00D+00 IRadAn=         1 IDoV= 1
 ScaDFX=  1.000000  1.000000  1.000000  1.000000
 FoFCou: FMM=F IPFlag=           0 FMFlag=      100000 FMFlg1=           1
         NFxFlg=           0 DoJE=T BraDBF=F KetDBF=T FulRan=T
         Omega=  0.000000  0.000000  1.000000  0.000000  0.000000 ICntrl=     500 IOpCl=  0
         NMat0=    1 NMatS0=    1 NMatT0=    0 NMatD0=    1 NMtDS0=    0 NMtDT0=    0
         I1Cent=           4 NGrid=           0.
 Petite list used in FoFCou.
 Initial guess orbital symmetries:
       Occupied  (A) (A) (A) (A) (A) (A) (A) (A) (A) (A) (A) (A)
                 (A) (A) (A) (A) (A) (A) (A) (A) (A) (A) (A) (A)
                 (A) (A) (A) (A) (A) (A) (A) (A) (A) (A) (A) (A)
                 (A) (A) (A) (A) (A) (A) (A) (A) (A) (A) (A) (A)
                 (A) (A) (A) (A) (A) (A) (A) (A) (A) (A) (A) (A)
                 (A) (A) (A) (A) (A) (A) (A) (A) (A) (A) (A) (A)
                 (A) (A) (A) (A) (A) (A) (A) (A) (A) (A) (A) (A)
                 (A) (A) (A) (A) (A) (A) (A) (A) (A) (A) (A) (A)
                 (A) (A) (A) (A) (A) (A) (A) (A) (A) (A) (A) (A)
       Virtual   (A) (A) (A) (A) (A) (A) (A) (A) (A) (A) (A) (A)
                 (A) (A) (A) (A) (A) (A) (A) (A) (A) (A) (A) (A)
                 (A) (A) (A) (A) (A) (A) (A) (A) (A) (A) (A) (A)
                 (A) (A) (A) (A) (A) (A) (A) (A) (A) (A) (A) (A)
                 (A) (A) (A) (A) (A) (A) (A) (A) (A) (A) (A) (A)
                 (A) (A) (A) (A) (A) (A) (A) (A) (A) (A) (A) (A)
                 (A) (A) (A) (A) (A) (A) (A) (A) (A) (A) (A) (A)
                 (A) (A) (A) (A) (A) (A) (A) (A) (A) (A) (A) (A)
                 (A) (A) (A) (A) (A) (A) (A) (A) (A) (A) (A) (A)
                 (A) (A) (A) (A) (A) (A) (A) (A) (A) (A) (A) (A)
                 (A) (A) (A) (A) (A) (A) (A) (A) (A) (A) (A) (A)
                 (A) (A) (A) (A) (A) (A) (A) (A) (A) (A) (A) (A)
                 (A) (A) (A) (A) (A) (A) (A) (A) (A) (A) (A) (A)
                 (A) (A) (A) (A) (A) (A) (A) (A) (A) (A) (A) (A)
                 (A) (A) (A) (A) (A) (A) (A) (A) (A) (A) (A) (A)
                 (A) (A) (A) (A) (A) (A) (A) (A) (A) (A) (A) (A)
                 (A) (A) (A) (A) (A) (A) (A) (A) (A) (A) (A) (A)
                 (A) (A) (A) (A) (A) (A) (A) (A) (A) (A) (A) (A)
                 (A) (A) (A) (A) (A) (A) (A) (A) (A) (A) (A) (A)
                 (A) (A) (A) (A) (A) (A) (A) (A) (A) (A) (A) (A)
                 (A) (A) (A) (A) (A) (A) (A) (A) (A) (A) (A) (A)
                 (A) (A) (A) (A) (A) (A) (A) (A) (A) (A) (A) (A)
                 (A) (A) (A) (A) (A) (A) (A) (A) (A) (A) (A) (A)
                 (A) (A) (A) (A) (A) (A) (A) (A) (A) (A) (A) (A)
                 (A) (A) (A) (A) (A) (A) (A) (A) (A) (A) (A) (A)
                 (A) (A) (A) (A) (A) (A) (A) (A) (A) (A) (A) (A)
                 (A) (A) (A) (A) (A) (A) (A) (A) (A) (A) (A) (A)
                 (A) (A) (A) (A) (A) (A) (A) (A) (A) (A) (A) (A)
                 (A) (A) (A) (A) (A) (A) (A) (A) (A) (A) (A) (A)
                 (A) (A) (A) (A) (A) (A) (A) (A) (A) (A) (A) (A)
                 (A) (A) (A) (A) (A) (A) (A) (A) (A) (A) (A) (A)
                 (A) (A) (A) (A) (A) (A) (A) (A) (A) (A) (A) (A)
 The electronic state of the initial guess is 1-A.
 Requested convergence on RMS density matrix=1.00D-08 within 128 cycles.
 Requested convergence on MAX density matrix=1.00D-06.
 Requested convergence on             energy=1.00D-06.
 No special actions if energy rises.
 Integral accuracy reduced to 1.0D-05 until final iterations.
 Initial convergence to 1.0D-05 achieved.  Increase integral accuracy.
 SCF Done:  E(RHF) =  -1295.55047463     A.U. after   14 cycles
             Convg  =    0.5616D-08             -V/T =  2.0008

 **********************************************************************

            Population analysis using the SCF density.

 **********************************************************************

 Orbital symmetries:
       Occupied  (A) (A) (A) (A) (A) (A) (A) (A) (A) (A) (A) (A)
                 (A) (A) (A) (A) (A) (A) (A) (A) (A) (A) (A) (A)
                 (A) (A) (A) (A) (A) (A) (A) (A) (A) (A) (A) (A)
                 (A) (A) (A) (A) (A) (A) (A) (A) (A) (A) (A) (A)
                 (A) (A) (A) (A) (A) (A) (A) (A) (A) (A) (A) (A)
                 (A) (A) (A) (A) (A) (A) (A) (A) (A) (A) (A) (A)
                 (A) (A) (A) (A) (A) (A) (A) (A) (A) (A) (A) (A)
                 (A) (A) (A) (A) (A) (A) (A) (A) (A) (A) (A) (A)
                 (A) (A) (A) (A) (A) (A) (A) (A) (A) (A) (A) (A)
       Virtual   (A) (A) (A) (A) (A) (A) (A) (A) (A) (A) (A) (A)
                 (A) (A) (A) (A) (A) (A) (A) (A) (A) (A) (A) (A)
                 (A) (A) (A) (A) (A) (A) (A) (A) (A) (A) (A) (A)
                 (A) (A) (A) (A) (A) (A) (A) (A) (A) (A) (A) (A)
                 (A) (A) (A) (A) (A) (A) (A) (A) (A) (A) (A) (A)
                 (A) (A) (A) (A) (A) (A) (A) (A) (A) (A) (A) (A)
                 (A) (A) (A) (A) (A) (A) (A) (A) (A) (A) (A) (A)
                 (A) (A) (A) (A) (A) (A) (A) (A) (A) (A) (A) (A)
                 (A) (A) (A) (A) (A) (A) (A) (A) (A) (A) (A) (A)
                 (A) (A) (A) (A) (A) (A) (A) (A) (A) (A) (A) (A)
                 (A) (A) (A) (A) (A) (A) (A) (A) (A) (A) (A) (A)
                 (A) (A) (A) (A) (A) (A) (A) (A) (A) (A) (A) (A)
                 (A) (A) (A) (A) (A) (A) (A) (A) (A) (A) (A) (A)
                 (A) (A) (A) (A) (A) (A) (A) (A) (A) (A) (A) (A)
                 (A) (A) (A) (A) (A) (A) (A) (A) (A) (A) (A) (A)
                 (A) (A) (A) (A) (A) (A) (A) (A) (A) (A) (A) (A)
                 (A) (A) (A) (A) (A) (A) (A) (A) (A) (A) (A) (A)
                 (A) (A) (A) (A) (A) (A) (A) (A) (A) (A) (A) (A)
                 (A) (A) (A) (A) (A) (A) (A) (A) (A) (A) (A) (A)
                 (A) (A) (A) (A) (A) (A) (A) (A) (A) (A) (A) (A)
                 (A) (A) (A) (A) (A) (A) (A) (A) (A) (A) (A) (A)
                 (A) (A) (A) (A) (A) (A) (A) (A) (A) (A) (A) (A)
                 (A) (A) (A) (A) (A) (A) (A) (A) (A) (A) (A) (A)
                 (A) (A) (A) (A) (A) (A) (A) (A) (A) (A) (A) (A)
                 (A) (A) (A) (A) (A) (A) (A) (A) (A) (A) (A) (A)
                 (A) (A) (A) (A) (A) (A) (A) (A) (A) (A) (A) (A)
                 (A) (A) (A) (A) (A) (A) (A) (A) (A) (A) (A) (A)
                 (A) (A) (A) (A) (A) (A) (A) (A) (A) (A) (A) (A)
                 (A) (A) (A) (A) (A) (A) (A) (A) (A) (A) (A) (A)
                 (A) (A) (A) (A) (A) (A) (A) (A) (A) (A) (A) (A)
                 (A) (A) (A) (A) (A) (A) (A) (A) (A) (A) (A) (A)
                 (A) (A) (A) (A) (A) (A) (A) (A) (A) (A) (A) (A)
 The electronic state is 1-A.
 Alpha  occ. eigenvalues --  -20.56105 -20.51574 -20.50991 -20.50784 -15.61290
 Alpha  occ. eigenvalues --  -15.57320 -15.56971 -15.52652 -11.38873 -11.33782
 Alpha  occ. eigenvalues --  -11.33079 -11.33077 -11.29458 -11.27919 -11.25799
 Alpha  occ. eigenvalues --  -11.24461 -11.23450 -11.23167 -11.22686 -11.22567
 Alpha  occ. eigenvalues --  -11.22115 -11.21367 -11.21356 -11.21293 -11.21238
 Alpha  occ. eigenvalues --  -11.20537 -11.20348 -11.17766  -1.45878  -1.38835
 Alpha  occ. eigenvalues --   -1.38467  -1.37546  -1.26866  -1.22984  -1.22035
 Alpha  occ. eigenvalues --   -1.20329  -1.09748  -1.08885  -1.06475  -1.03716
 Alpha  occ. eigenvalues --   -1.01694  -0.99507  -0.98312  -0.94607  -0.94186
 Alpha  occ. eigenvalues --   -0.93880  -0.91535  -0.86844  -0.85016  -0.83974
 Alpha  occ. eigenvalues --   -0.81375  -0.79267  -0.78960  -0.78480  -0.76305
 Alpha  occ. eigenvalues --   -0.72777  -0.71323  -0.70835  -0.68986  -0.67363
 Alpha  occ. eigenvalues --   -0.66598  -0.66169  -0.64200  -0.63945  -0.63350
 Alpha  occ. eigenvalues --   -0.63073  -0.62244  -0.61495  -0.61075  -0.60756
 Alpha  occ. eigenvalues --   -0.60378  -0.60109  -0.59377  -0.58606  -0.58242
 Alpha  occ. eigenvalues --   -0.58047  -0.57279  -0.56832  -0.56000  -0.55612
 Alpha  occ. eigenvalues --   -0.55297  -0.54693  -0.54266  -0.54113  -0.53862
 Alpha  occ. eigenvalues --   -0.53177  -0.52468  -0.52004  -0.51558  -0.51194
 Alpha  occ. eigenvalues --   -0.50594  -0.49564  -0.49231  -0.47969  -0.47473
 Alpha  occ. eigenvalues --   -0.47274  -0.45478  -0.45083  -0.43504  -0.42925
 Alpha  occ. eigenvalues --   -0.42031  -0.40923  -0.40571  -0.38891  -0.38274
 Alpha  occ. eigenvalues --   -0.37696  -0.35543  -0.32764
 Alpha virt. eigenvalues --    0.15607   0.18825   0.19897   0.20206   0.20968
 Alpha virt. eigenvalues --    0.22159   0.22595   0.23865   0.23946   0.25353
 Alpha virt. eigenvalues --    0.25646   0.26252   0.27003   0.27851   0.28130
 Alpha virt. eigenvalues --    0.28233   0.28514   0.28655   0.29270   0.30018
 Alpha virt. eigenvalues --    0.30719   0.31500   0.31584   0.31707   0.32460
 Alpha virt. eigenvalues --    0.32757   0.33182   0.33654   0.34102   0.34246
 Alpha virt. eigenvalues --    0.34651   0.35000   0.35352   0.35633   0.35829
 Alpha virt. eigenvalues --    0.36243   0.36868   0.37670   0.38205   0.38584
 Alpha virt. eigenvalues --    0.39109   0.39687   0.39950   0.40248   0.41470
 Alpha virt. eigenvalues --    0.41844   0.42331   0.43088   0.43443   0.44590
 Alpha virt. eigenvalues --    0.45210   0.46378   0.46790   0.47507   0.47813
 Alpha virt. eigenvalues --    0.48804   0.49674   0.50007   0.52902   0.53155
 Alpha virt. eigenvalues --    0.55476   0.56986   0.58370   0.59330   0.60405
 Alpha virt. eigenvalues --    0.63662   0.65216   0.67285   0.69855   0.70778
 Alpha virt. eigenvalues --    0.71678   0.71953   0.72241   0.72676   0.73478
 Alpha virt. eigenvalues --    0.74296   0.74582   0.76378   0.76905   0.76991
 Alpha virt. eigenvalues --    0.77579   0.77913   0.78070   0.79002   0.79341
 Alpha virt. eigenvalues --    0.79851   0.80298   0.81052   0.81461   0.82546
 Alpha virt. eigenvalues --    0.84464   0.84920   0.85385   0.86152   0.86719
 Alpha virt. eigenvalues --    0.88030   0.88896   0.89189   0.90202   0.90943
 Alpha virt. eigenvalues --    0.91813   0.92195   0.92727   0.93222   0.94166
 Alpha virt. eigenvalues --    0.94556   0.95174   0.96797   0.97142   0.97816
 Alpha virt. eigenvalues --    0.98168   0.99462   0.99950   1.00682   1.00917
 Alpha virt. eigenvalues --    1.01474   1.01866   1.02917   1.03536   1.04012
 Alpha virt. eigenvalues --    1.04804   1.05257   1.06620   1.07255   1.07759
 Alpha virt. eigenvalues --    1.08105   1.08794   1.09090   1.09956   1.10886
 Alpha virt. eigenvalues --    1.11085   1.13283   1.13807   1.14270   1.14716
 Alpha virt. eigenvalues --    1.15018   1.15428   1.15851   1.16059   1.16195
 Alpha virt. eigenvalues --    1.16579   1.17050   1.17342   1.17596   1.17910
 Alpha virt. eigenvalues --    1.18342   1.18789   1.18865   1.19061   1.19527
 Alpha virt. eigenvalues --    1.20064   1.20263   1.20505   1.21501   1.21909
 Alpha virt. eigenvalues --    1.22312   1.22805   1.22939   1.23101   1.23676
 Alpha virt. eigenvalues --    1.24071   1.24595   1.25072   1.26370   1.26956
 Alpha virt. eigenvalues --    1.27675   1.28217   1.28875   1.29033   1.29714
 Alpha virt. eigenvalues --    1.30552   1.30637   1.31865   1.32391   1.32614
 Alpha virt. eigenvalues --    1.34907   1.35023   1.36526   1.37428   1.38212
 Alpha virt. eigenvalues --    1.39492   1.41710   1.42503   1.43471   1.44363
 Alpha virt. eigenvalues --    1.46940   1.47292   1.48663   1.50252   1.50867
 Alpha virt. eigenvalues --    1.52652   1.52967   1.54904   1.56478   1.57805
 Alpha virt. eigenvalues --    1.58960   1.60049   1.61116   1.62240   1.63483
 Alpha virt. eigenvalues --    1.66070   1.67328   1.67650   1.69924   1.70146
 Alpha virt. eigenvalues --    1.70946   1.72516   1.73879   1.74224   1.75023
 Alpha virt. eigenvalues --    1.76811   1.78070   1.79300   1.80766   1.81369
 Alpha virt. eigenvalues --    1.83469   1.85293   1.86890   1.88313   1.90020
 Alpha virt. eigenvalues --    1.90578   1.91719   1.92088   1.92588   1.95501
 Alpha virt. eigenvalues --    1.96501   1.97309   1.99093   2.00824   2.01249
 Alpha virt. eigenvalues --    2.03394   2.05282   2.07313   2.08039   2.08830
 Alpha virt. eigenvalues --    2.09368   2.10887   2.11306   2.12293   2.13093
 Alpha virt. eigenvalues --    2.13634   2.14644   2.14954   2.15644   2.15832
 Alpha virt. eigenvalues --    2.16920   2.18008   2.18833   2.19577   2.20186
 Alpha virt. eigenvalues --    2.21064   2.22068   2.23069   2.23201   2.23821
 Alpha virt. eigenvalues --    2.25783   2.26200   2.26443   2.27212   2.27838
 Alpha virt. eigenvalues --    2.28819   2.29364   2.31738   2.32203   2.33478
 Alpha virt. eigenvalues --    2.34251   2.34788   2.36093   2.36610   2.37291
 Alpha virt. eigenvalues --    2.37825   2.38122   2.38972   2.39928   2.40144
 Alpha virt. eigenvalues --    2.40467   2.42663   2.43257   2.44091   2.46245
 Alpha virt. eigenvalues --    2.46839   2.47217   2.48395   2.49064   2.50674
 Alpha virt. eigenvalues --    2.52946   2.53338   2.54054   2.55109   2.56182
 Alpha virt. eigenvalues --    2.56887   2.57840   2.59042   2.60348   2.60619
 Alpha virt. eigenvalues --    2.62194   2.63761   2.64900   2.65626   2.66656
 Alpha virt. eigenvalues --    2.68644   2.69160   2.69963   2.70409   2.70848
 Alpha virt. eigenvalues --    2.72255   2.74218   2.75585   2.76207   2.76699
 Alpha virt. eigenvalues --    2.77592   2.78306   2.78865   2.80168   2.81920
 Alpha virt. eigenvalues --    2.83481   2.84264   2.86243   2.86756   2.87007
 Alpha virt. eigenvalues --    2.89087   2.92641   2.93554   2.95150   2.96417
 Alpha virt. eigenvalues --    2.97790   2.99147   3.00310   3.00472   3.02894
 Alpha virt. eigenvalues --    3.04402   3.05931   3.06188   3.08754   3.09707
 Alpha virt. eigenvalues --    3.11702   3.13282   3.13474   3.13791   3.16466
 Alpha virt. eigenvalues --    3.18605   3.19254   3.23590   3.27174   3.31182
 Alpha virt. eigenvalues --    3.34961   3.36436   3.40483   3.41090   3.43237
 Alpha virt. eigenvalues --    3.43288   3.48555   3.56270   3.56318   3.58135
 Alpha virt. eigenvalues --    3.64336   4.38734   4.39014   4.47818   4.49742
 Alpha virt. eigenvalues --    4.52404   4.55542   4.56820   4.59116   4.62598
 Alpha virt. eigenvalues --    4.64070   4.67224   4.68370   4.69713   4.70764
 Alpha virt. eigenvalues --    4.72145   4.78479   4.82651   4.83887   4.85754
 Alpha virt. eigenvalues --    4.90231   4.93939   4.94525   4.97705   4.98931
 Alpha virt. eigenvalues --    5.01259   5.04460   5.24215   5.27135
          Condensed to atoms (all electrons):
 Mulliken atomic charges:
              1
     1  C   -0.270653
     2  N   -0.849569
     3  C    0.812273
     4  O   -0.651535
     5  C    0.088358
     6  C   -0.488617
     7  C   -0.334319
     8  C   -0.302620
     9  C   -0.365159
    10  C   -0.171910
    11  C   -0.186444
    12  C   -0.347948
    13  C   -0.309592
    14  C   -0.328266
    15  C    0.090612
    16  C   -0.509477
    17  N   -0.787715
    18  C    0.767448
    19  C   -0.595461
    20  O   -0.614847
    21  C    0.821321
    22  O   -0.640033
    23  N   -0.805118
    24  C   -0.275015
    25  N   -0.803939
    26  C    0.762748
    27  C   -0.586218
    28  O   -0.656196
    29  H    0.162674
    30  H    0.183278
    31  H    0.158877
    32  H    0.517302
    33  H    0.197811
    34  H    0.161290
    35  H    0.200928
    36  H    0.150715
    37  H    0.187934
    38  H    0.156278
    39  H    0.161155
    40  H    0.286886
    41  H    0.146694
    42  H    0.168610
    43  H    0.161184
    44  H    0.177214
    45  H    0.153316
    46  H    0.146292
    47  H    0.200423
    48  H    0.171289
    49  H    0.186772
    50  H    0.182540
    51  H    0.148873
    52  H    0.224793
    53  H    0.390105
    54  H    0.209788
    55  H    0.209089
    56  H    0.175952
    57  H    0.394778
    58  H    0.164198
    59  H    0.200557
    60  H    0.182944
    61  H    0.393454
    62  H    0.221969
    63  H    0.194389
    64  H    0.207541
 Sum of Mulliken atomic charges =   0.00000
 Mulliken charges with hydrogens summed into heavy atoms:
              1
     1  C    0.234176
     2  N   -0.332267
     3  C    0.812273
     4  O   -0.651535
     5  C    0.088358
     6  C    0.071411
     7  C    0.004330
     8  C    0.014813
     9  C    0.068421
    10  C   -0.003299
    11  C   -0.025260
    12  C   -0.017417
    13  C    0.037123
    14  C    0.029796
    15  C    0.090612
    16  C    0.046730
    17  N   -0.397610
    18  C    0.767448
    19  C   -0.000631
    20  O   -0.614847
    21  C    0.821321
    22  O   -0.640033
    23  N   -0.410340
    24  C    0.272683
    25  N   -0.410486
    26  C    0.762748
    27  C    0.037681
    28  O   -0.656196
 Sum of Mulliken charges with hydrogens summed into heavy atoms =   0.00000
 Electronic spatial extent (au):  <R**2>=          22510.9255
 Charge=              0.0000 electrons
 Dipole moment (field-independent basis, Debye):
    X=             -6.9469    Y=             -4.4856    Z=              3.8427  Tot=              9.1184
 Quadrupole moment (field-independent basis, Debye-Ang):
   XX=           -164.2907   YY=           -156.4399   ZZ=           -169.7756
   XY=             10.6631   XZ=             -6.0378   YZ=              5.4273
 Traceless Quadrupole moment (field-independent basis, Debye-Ang):
   XX=             -0.7886   YY=              7.0622   ZZ=             -6.2735
   XY=             10.6631   XZ=             -6.0378   YZ=              5.4273
 Octapole moment (field-independent basis, Debye-Ang**2):
  XXX=           -521.2227  YYY=             50.6261  ZZZ=              5.3723  XYY=             34.6228
  XXY=           -218.7560  XXZ=            102.6999  XZZ=            -22.4159  YZZ=              2.4204
  YYZ=              2.4853  XYZ=             35.3205
 Hexadecapole moment (field-independent basis, Debye-Ang**3):
 XXXX=         -26337.7587 YYYY=          -2396.8165 ZZZZ=          -1189.5319 XXXY=            170.7178
 XXXZ=           -904.1282 YYYX=             92.0783 YYYZ=             -0.1687 ZZZX=            -12.2542
 ZZZY=              0.4934 XXYY=          -4271.9627 XXZZ=          -4323.4562 YYZZ=           -612.7249
 XXYZ=            112.8364 YYXZ=            -44.6173 ZZXY=             15.9061
 N-N= 2.686846924357D+03 E-N=-8.406930610409D+03  KE= 1.294552276626D+03
 1\1\GINC-MOSURA\SP\RHF\6-31G(d)\C20H36N4O4\MARIE\05-Dec-2019\0\\#SP HF
 /6-31G* Geom=(ModRedundant)\\paramfit run\\0,1\C,0,0.,0.,0.\N,0,1.4481
 87,0.,0.\C,0,2.1232,0.47592,1.072365\O,0,1.590179,0.696732,2.124447\C,
 0,3.650505,0.594143,0.921539\C,0,4.02459,2.047501,0.612263\C,0,4.35538
 5,0.087647,2.209253\C,0,4.06756,0.795005,3.545829\C,0,2.795195,0.38388
 9,4.313101\C,0,2.720924,-1.09021,4.635272\C,0,3.033429,-1.682819,5.776
 286\C,0,3.543144,-1.03164,7.039579\C,0,2.480437,-0.86743,8.141056\C,0,
 1.902511,-2.208994,8.611291\C,0,0.953906,-2.203359,9.837978\C,0,0.4721
 36,-3.64636,10.059558\N,0,1.705544,-1.758506,11.003601\C,0,1.09168,-1.
 517531,12.198657\C,0,1.908276,-0.713244,13.1841\O,0,-0.012139,-1.91132
 2,12.45489\C,0,-0.181105,-1.187266,9.577148\O,0,-0.01188,-0.01894,9.80
 1439\N,0,-1.310548,-1.650706,8.9996\C,0,-2.432189,-0.76233,8.773966\N,
 0,4.13142,-0.29954,-0.142172\C,0,3.72887,-0.21371,-1.442272\C,0,4.5887
 06,-0.97104,-2.432855\O,0,2.759187,0.404567,-1.779301\H,0,-0.403259,1.
 006147,0.\H,0,-0.36496,-0.516002,0.875939\H,0,-0.345658,-0.522086,-0.8
 83346\H,0,1.904244,0.070913,-0.879357\H,0,3.658004,2.716503,1.375797\H
 ,0,5.105082,2.137184,0.55117\H,0,3.592072,2.355361,-0.328522\H,0,5.421
 57,0.186867,2.017875\H,0,4.162541,-0.975653,2.311658\H,0,4.917213,0.59
 0743,4.190799\H,0,4.051392,1.870192,3.400623\H,0,1.914839,0.668161,3.7
 51383\H,0,2.769136,0.968324,5.226113\H,0,2.366514,-1.717642,3.8335\H,0
 ,2.911487,-2.753562,5.82529\H,0,3.95631,-0.05492,6.818721\H,0,4.367302
 ,-1.628539,7.428255\H,0,2.941141,-0.334079,8.967895\H,0,1.686576,-0.22
 7326,7.77928\H,0,2.717223,-2.888153,8.853201\H,0,1.357651,-2.658333,7.
 789358\H,0,1.323477,-4.257926,10.334854\H,0,0.052154,-4.064466,9.15061
 2\H,0,-0.256426,-3.705981,10.854153\H,0,2.481388,-1.167967,10.808563\H
 ,0,1.53111,-0.887015,14.180398\H,0,1.795605,0.340628,12.947911\H,0,2.9
 62727,-0.963525,13.140798\H,0,-1.504593,-2.622682,9.053636\H,0,-3.1809
 7,-1.290565,8.198453\H,0,-2.105529,0.103429,8.216849\H,0,-2.8719,-0.42
 3973,9.706663\H,0,5.019404,-0.720221,0.019255\H,0,4.005955,-1.17004,-3
 .32042\H,0,4.961938,-1.903261,-2.02394\H,0,5.439646,-0.356506,-2.70862
 7\\Version=EM64L-G09RevA.02\State=1-A\HF=-1295.5504746\RMSD=5.616e-09\
 Dipole=2.4153977,-1.0383931,-2.4407976\Quadrupole=8.1394202,-5.7959379
 ,-2.3434823,4.4215325,-5.4694356,4.6886318\PG=C01 [X(C20H36N4O4)]\\@


 HE THAT WALD REACHE THE SWEITE ROSE
 SULD NOW AND THEN BE SCRATCHED WT THE SCHARPE BREERES.
 -- PROVERBS AND REASONS OF THE YEAR 1585
           AS REPRINTED IN PAISLEY MAGAZINE 1828.
 Job cpu time:  0 days  0 hours  5 minutes 10.8 seconds.
 File lengths (MBytes):  RWF=    132 Int=      0 D2E=      0 Chk=     10 Scr=      1
 Normal termination of Gaussian 09 at Thu Dec  5 16:20:53 2019.
