 Entering Gaussian System, Link 0=g09
 Input=PSI_-140.gau
 Output=PSI_-140.log
 Initial command:
 /home/marie/Utilities//g09/l1.exe /tmp/g09/Gau-3605.inp -scrdir=/tmp/g09/
 Entering Link 1 = /home/marie/Utilities//g09/l1.exe PID=      3607.
  
 Copyright (c) 1988,1990,1992,1993,1995,1998,2003,2009, Gaussian, Inc.
                  All Rights Reserved.
  
 This is part of the Gaussian(R) 09 program.  It is based on
 the Gaussian(R) 03 system (copyright 2003, Gaussian, Inc.),
 the Gaussian(R) 98 system (copyright 1998, Gaussian, Inc.),
 the Gaussian(R) 94 system (copyright 1995, Gaussian, Inc.),
 the Gaussian 92(TM) system (copyright 1992, Gaussian, Inc.),
 the Gaussian 90(TM) system (copyright 1990, Gaussian, Inc.),
 the Gaussian 88(TM) system (copyright 1988, Gaussian, Inc.),
 the Gaussian 86(TM) system (copyright 1986, Carnegie Mellon
 University), and the Gaussian 82(TM) system (copyright 1983,
 Carnegie Mellon University). Gaussian is a federally registered
 trademark of Gaussian, Inc.
  
 This software contains proprietary and confidential information,
 including trade secrets, belonging to Gaussian, Inc.
  
 This software is provided under written license and may be
 used, copied, transmitted, or stored only in accord with that
 written license.
  
 The following legend is applicable only to US Government
 contracts under FAR:
  
                    RESTRICTED RIGHTS LEGEND
  
 Use, reproduction and disclosure by the US Government is
 subject to restrictions as set forth in subparagraphs (a)
 and (c) of the Commercial Computer Software - Restricted
 Rights clause in FAR 52.227-19.
  
 Gaussian, Inc.
 340 Quinnipiac St., Bldg. 40, Wallingford CT 06492
  
  
 ---------------------------------------------------------------
 Warning -- This program may not be used in any manner that
 competes with the business of Gaussian, Inc. or will provide
 assistance to any competitor of Gaussian, Inc.  The licensee
 of this program is prohibited from giving any competitor of
 Gaussian, Inc. access to this program.  By using this program,
 the user acknowledges that Gaussian, Inc. is engaged in the
 business of creating and licensing software in the field of
 computational chemistry and represents and warrants to the
 licensee that it is not a competitor of Gaussian, Inc. and that
 it will not use this program in any manner prohibited above.
 ---------------------------------------------------------------
  

 Cite this work as:
 Gaussian 09, Revision A.02,
 M. J. Frisch, G. W. Trucks, H. B. Schlegel, G. E. Scuseria, 
 M. A. Robb, J. R. Cheeseman, G. Scalmani, V. Barone, B. Mennucci, 
 G. A. Petersson, H. Nakatsuji, M. Caricato, X. Li, H. P. Hratchian, 
 A. F. Izmaylov, J. Bloino, G. Zheng, J. L. Sonnenberg, M. Hada, 
 M. Ehara, K. Toyota, R. Fukuda, J. Hasegawa, M. Ishida, T. Nakajima, 
 Y. Honda, O. Kitao, H. Nakai, T. Vreven, J. A. Montgomery, Jr., 
 J. E. Peralta, F. Ogliaro, M. Bearpark, J. J. Heyd, E. Brothers, 
 K. N. Kudin, V. N. Staroverov, R. Kobayashi, J. Normand, 
 K. Raghavachari, A. Rendell, J. C. Burant, S. S. Iyengar, J. Tomasi, 
 M. Cossi, N. Rega, J. M. Millam, M. Klene, J. E. Knox, J. B. Cross, 
 V. Bakken, C. Adamo, J. Jaramillo, R. Gomperts, R. E. Stratmann, 
 O. Yazyev, A. J. Austin, R. Cammi, C. Pomelli, J. W. Ochterski, 
 R. L. Martin, K. Morokuma, V. G. Zakrzewski, G. A. Voth, 
 P. Salvador, J. J. Dannenberg, S. Dapprich, A. D. Daniels, 
 O. Farkas, J. B. Foresman, J. V. Ortiz, J. Cioslowski, 
 and D. J. Fox, Gaussian, Inc., Wallingford CT, 2009.
 
 ******************************************
 Gaussian 09:  EM64L-G09RevA.02 11-Jun-2009
                 5-Dec-2019 
 ******************************************
 %chk=PSI_-140
 %NoSave
 ---------------------------------
 #SP HF/6-31G* Geom=(ModRedundant)
 ---------------------------------
 1/18=120,38=1/1;
 2/12=2,17=6,18=5,40=1/2;
 3/5=1,6=6,7=1,11=9,16=1,25=1,30=1/1,2,3;
 4//1;
 5/5=2,38=5/2;
 6/7=2,8=2,9=2,10=2,28=1/1;
 99/5=1,9=1/99;
 ------------
 paramfit run
 ------------
 Symbolic Z-matrix:
 Charge =  0 Multiplicity = 1
 C-CT--0.3208          0.        0.        0. 
 N-N--0.5622           1.44819   0.        0. 
 C-C-0.8053            2.1232    0.47592   1.07237 
 O-O--0.6151           1.59018   0.69673   2.12445 
 C-CX-0.0839           3.65051   0.59414   0.92154 
 C-CU--0.3230          4.32988   0.16059   2.22473 
 C-CU--0.0657          4.13598  -0.25739  -0.28296 
 C-CU--0.0109          3.88971  -1.77687  -0.27104 
 C-CU-0.0816           2.50419  -2.2804   -0.72207 
 C-CM--0.2354          2.1125   -1.83906  -2.11278 
 C-CM--0.2653          2.20921  -2.53213  -3.23574 
 C-CU-0.1214           2.73656  -3.93674  -3.40523 
 C-CU--0.0354          1.6439   -5.00761  -3.57519 
 C-CU--0.0984          0.77492  -4.7751   -4.81846 
 C-CU-0.1300          -0.24781  -5.87373  -5.20792 
 C-CU--0.3561         -1.02336  -5.37209  -6.43688 
 N-N--0.7186           0.48249  -7.08485  -5.55632 
 C-C-0.8537           -0.16389  -8.26167  -5.80193 
 C-CT--0.3868          0.71574  -9.49055  -5.77183 
 O-O--0.6323          -1.3408   -8.32384  -6.0259 
 C-C-0.7903           -1.13337  -6.17914  -3.9786 
 O-O--0.6136          -0.75318  -6.94324  -3.13271 
 N-N--0.5650          -2.28305  -5.48199  -3.85131 
 C-CT--0.3231         -3.18378  -5.75492  -2.75022 
 N-N--0.7191           4.02662   1.97328   0.57811 
 C-C-0.8539            3.75365   3.05111   1.3677 
 C-CT--0.3903          4.52123   4.31077   1.02392 
 O-O--0.6290           2.95638   3.01229   2.26157 
 H-H1-0.1459          -0.40326   1.00615   0. 
 H-H1-0.1459          -0.36496  -0.516     0.87594 
 H-H1-0.1459          -0.34566  -0.52209  -0.88335 
 H-H-0.3572            1.90424   0.07091  -0.87936 
 H-HC-0.0997           4.0445   -0.8435    2.49912 
 H-HC-0.0997           5.40796   0.20155   2.10101 
 H-HC-0.0997           4.04336   0.81568   3.03449 
 H-HC-0.0347           5.21232  -0.10811  -0.33229 
 H-HC-0.0347           3.72772   0.17002  -1.19342 
 H-HC-0.0243           4.62777  -2.21302  -0.93787 
 H-HC-0.0243           4.09958  -2.17901   0.71467 
 H-HC-0.0171           1.74548  -1.95693  -0.02129 
 H-HC-0.0171           2.52272  -3.36306  -0.66429 
 H-HA-0.1313           1.70496  -0.84333  -2.18024 
 H-HA-0.1359           1.87296  -2.05249  -4.14163 
 H-HC-0.0092           3.35217  -4.21201  -2.55746 
 H-HC-0.0092           3.39184  -3.95767  -4.27515 
 H-HC-0.0318           2.13453  -5.97583  -3.62225 
 H-HC-0.0318           1.02468  -5.03043  -2.68813 
 H-HC-0.0435           1.41623  -4.62814  -5.68486 
 H-HC-0.0435           0.21842  -3.8549   -4.68467 
 H-HC-0.1066          -0.33545  -5.28631  -7.26995 
 H-HC-0.1066          -1.44475  -4.3878   -6.26087 
 H-HC-0.1066          -1.80988  -6.05602  -6.71858 
 H-H-0.3529            1.37339  -7.18224  -5.12558 
 H-HC-0.1047           0.23371  -10.28366  -6.32289 
 H-HC-0.1047           0.83432  -9.80586  -4.73953 
 H-HC-0.1047           1.69926  -9.29887  -6.18695 
 H-H-0.3615           -2.67045  -5.05736  -4.66058 
 H-H1-0.1469          -3.97471  -5.0165   -2.75969 
 H-H1-0.1469          -2.64809  -5.6855   -1.81488 
 H-H1-0.1469          -3.61986  -6.74604  -2.82283 
 H-H-0.3570            4.79737   2.06552  -0.04558 
 H-HC-0.1060           3.98279   5.16404   1.40992 
 H-HC-0.1060           4.66768   4.42363  -0.04442 
 H-HC-0.1060           5.49665   4.27409   1.49827 
 
 The following ModRedundant input section has been read:
 D    *    3    5    * F                                                       
 Stoichiometry    C20H36N4O4
 Framework group  C1[X(C20H36N4O4)]
 Deg. of freedom   186
 Full point group                 C1      NOp   1
 Largest Abelian subgroup         C1      NOp   1
 Largest concise Abelian subgroup C1      NOp   1
                         Standard orientation:                         
 ---------------------------------------------------------------------
 Center     Atomic      Atomic             Coordinates (Angstroms)
 Number     Number       Type             X           Y           Z
 ---------------------------------------------------------------------
      1          6    20001001       -2.689220    2.469058    0.361659
      2          7    20001014       -3.192853    1.125879    0.162991
      3          6    20001002       -4.376797    0.934851   -0.464619
      4          8    20001024       -4.935319    1.808308   -1.068665
      5          6    90000001       -4.915400   -0.506990   -0.484324
      6          6    90000002       -5.534840   -0.804659   -1.853822
      7          6    90000002       -3.776782   -1.507373   -0.146117
      8          6    90000002       -2.540921   -1.569819   -1.061749
      9          6    90000002       -1.428919   -0.526561   -0.834361
     10          6    20001004       -0.867565   -0.522182    0.568186
     11          6    20001004        0.241007   -1.105201    0.994701
     12          6    90000002        1.219655   -1.920876    0.184346
     13          6    90000002        2.507890   -1.169433   -0.196902
     14          6    90000002        3.313516   -0.715741    1.027862
     15          6    90000002        4.718693   -0.104701    0.789632
     16          6    90000002        5.279113    0.319088    2.157032
     17          7    20001014        5.577376   -1.128272    0.209548
     18          6    20001002        6.832473   -0.835470   -0.239959
     19          6    20001001        7.445598   -1.880009   -1.144294
     20          8    20001024        7.411668    0.172460    0.056267
     21          6    20001002        4.586370    1.050335   -0.228754
     22          8    20001024        4.572894    0.819894   -1.408010
     23          7    20001014        4.385802    2.292527    0.261869
     24          6    20001001        4.304210    3.426946   -0.635147
     25          7    20001014       -5.908144   -0.698150    0.583079
     26          6    20001002       -7.065863    0.016413    0.676682
     27          6    20001001       -8.103605   -0.561109    1.616723
     28          8    20001024       -7.248253    1.034037    0.070617
     29          1    20001035       -3.314929    3.038192    1.039540
     30          1    20001035       -2.648871    2.987456   -0.585103
     31          1    20001035       -1.688117    2.406074    0.769312
     32          1    20001029       -2.924178    0.435584    0.824498
     33          1    20001034       -4.821376   -0.646989   -2.648204
     34          1    20001034       -5.873233   -1.836167   -1.880672
     35          1    20001034       -6.377059   -0.153063   -2.035532
     36          1    20001034       -4.237742   -2.492485   -0.163249
     37          1    20001034       -3.461896   -1.336832    0.878599
     38          1    20001034       -2.100619   -2.552071   -0.917066
     39          1    20001034       -2.847231   -1.527405   -2.101820
     40          1    20001034       -1.794836    0.463847   -1.072185
     41          1    20001034       -0.642788   -0.735233   -1.551499
     42          1    20001033       -1.446932    0.027337    1.292393
     43          1    20001033        0.488590   -0.989857    2.038329
     44          1    20001034        0.751150   -2.274265   -0.726194
     45          1    20001034        1.483799   -2.810746    0.754392
     46          1    20001034        3.100090   -1.827292   -0.826897
     47          1    20001034        2.255126   -0.316015   -0.812221
     48          1    20001034        3.452778   -1.558973    1.700988
     49          1    20001034        2.733303    0.021609    1.570098
     50          1    20001034        5.430511   -0.568569    2.760128
     51          1    20001034        4.580022    0.957061    2.687731
     52          1    20001034        6.227472    0.825913    2.059643
     53          1    20001029        5.105959   -1.835782   -0.306115
     54          1    20001034        8.518601   -1.762864   -1.142656
     55          1    20001034        7.079428   -1.721194   -2.154157
     56          1    20001034        7.184832   -2.887725   -0.839513
     57          1    20001029        4.640176    2.475530    1.203737
     58          1    20001035        4.022318    4.300695   -0.062415
     59          1    20001035        3.553173    3.242514   -1.389174
     60          1    20001035        5.250116    3.615993   -1.132416
     61          1    20001029       -5.905067   -1.594467    1.016846
     62          1    20001034       -8.777173    0.227124    1.919984
     63          1    20001034       -7.655763   -1.016518    2.492845
     64          1    20001034       -8.674502   -1.321310    1.093301
 ---------------------------------------------------------------------
 Rotational constants (GHZ):      0.4402015      0.0498123      0.0478145
 Standard basis: 6-31G(d) (6D, 7F)
 There are   492 symmetry adapted basis functions of A   symmetry.
 Integral buffers will be    131072 words long.
 Raffenetti 1 integral format.
 Two-electron integral symmetry is turned on.
   492 basis functions,   928 primitive gaussians,   492 cartesian basis functions
   108 alpha electrons      108 beta electrons
       nuclear repulsion energy      2704.1830975474 Hartrees.
 NAtoms=   64 NActive=   64 NUniq=   64 SFac= 7.50D-01 NAtFMM=   80 NAOKFM=F Big=T
 One-electron integrals computed using PRISM.
 NBasis=   492 RedAO= T  NBF=   492
 NBsUse=   492 1.00D-06 NBFU=   492
 Harris functional with IExCor=  205 diagonalized for initial guess.
 ExpMin= 1.61D-01 ExpMax= 5.48D+03 ExpMxC= 8.25D+02 IAcc=1 IRadAn=         1 AccDes= 0.00D+00
 HarFok:  IExCor=  205 AccDes= 0.00D+00 IRadAn=         1 IDoV= 1
 ScaDFX=  1.000000  1.000000  1.000000  1.000000
 FoFCou: FMM=F IPFlag=           0 FMFlag=      100000 FMFlg1=           1
         NFxFlg=           0 DoJE=T BraDBF=F KetDBF=T FulRan=T
         Omega=  0.000000  0.000000  1.000000  0.000000  0.000000 ICntrl=     500 IOpCl=  0
         NMat0=    1 NMatS0=    1 NMatT0=    0 NMatD0=    1 NMtDS0=    0 NMtDT0=    0
         I1Cent=           4 NGrid=           0.
 Petite list used in FoFCou.
 Initial guess orbital symmetries:
       Occupied  (A) (A) (A) (A) (A) (A) (A) (A) (A) (A) (A) (A)
                 (A) (A) (A) (A) (A) (A) (A) (A) (A) (A) (A) (A)
                 (A) (A) (A) (A) (A) (A) (A) (A) (A) (A) (A) (A)
                 (A) (A) (A) (A) (A) (A) (A) (A) (A) (A) (A) (A)
                 (A) (A) (A) (A) (A) (A) (A) (A) (A) (A) (A) (A)
                 (A) (A) (A) (A) (A) (A) (A) (A) (A) (A) (A) (A)
                 (A) (A) (A) (A) (A) (A) (A) (A) (A) (A) (A) (A)
                 (A) (A) (A) (A) (A) (A) (A) (A) (A) (A) (A) (A)
                 (A) (A) (A) (A) (A) (A) (A) (A) (A) (A) (A) (A)
       Virtual   (A) (A) (A) (A) (A) (A) (A) (A) (A) (A) (A) (A)
                 (A) (A) (A) (A) (A) (A) (A) (A) (A) (A) (A) (A)
                 (A) (A) (A) (A) (A) (A) (A) (A) (A) (A) (A) (A)
                 (A) (A) (A) (A) (A) (A) (A) (A) (A) (A) (A) (A)
                 (A) (A) (A) (A) (A) (A) (A) (A) (A) (A) (A) (A)
                 (A) (A) (A) (A) (A) (A) (A) (A) (A) (A) (A) (A)
                 (A) (A) (A) (A) (A) (A) (A) (A) (A) (A) (A) (A)
                 (A) (A) (A) (A) (A) (A) (A) (A) (A) (A) (A) (A)
                 (A) (A) (A) (A) (A) (A) (A) (A) (A) (A) (A) (A)
                 (A) (A) (A) (A) (A) (A) (A) (A) (A) (A) (A) (A)
                 (A) (A) (A) (A) (A) (A) (A) (A) (A) (A) (A) (A)
                 (A) (A) (A) (A) (A) (A) (A) (A) (A) (A) (A) (A)
                 (A) (A) (A) (A) (A) (A) (A) (A) (A) (A) (A) (A)
                 (A) (A) (A) (A) (A) (A) (A) (A) (A) (A) (A) (A)
                 (A) (A) (A) (A) (A) (A) (A) (A) (A) (A) (A) (A)
                 (A) (A) (A) (A) (A) (A) (A) (A) (A) (A) (A) (A)
                 (A) (A) (A) (A) (A) (A) (A) (A) (A) (A) (A) (A)
                 (A) (A) (A) (A) (A) (A) (A) (A) (A) (A) (A) (A)
                 (A) (A) (A) (A) (A) (A) (A) (A) (A) (A) (A) (A)
                 (A) (A) (A) (A) (A) (A) (A) (A) (A) (A) (A) (A)
                 (A) (A) (A) (A) (A) (A) (A) (A) (A) (A) (A) (A)
                 (A) (A) (A) (A) (A) (A) (A) (A) (A) (A) (A) (A)
                 (A) (A) (A) (A) (A) (A) (A) (A) (A) (A) (A) (A)
                 (A) (A) (A) (A) (A) (A) (A) (A) (A) (A) (A) (A)
                 (A) (A) (A) (A) (A) (A) (A) (A) (A) (A) (A) (A)
                 (A) (A) (A) (A) (A) (A) (A) (A) (A) (A) (A) (A)
                 (A) (A) (A) (A) (A) (A) (A) (A) (A) (A) (A) (A)
                 (A) (A) (A) (A) (A) (A) (A) (A) (A) (A) (A) (A)
                 (A) (A) (A) (A) (A) (A) (A) (A) (A) (A) (A) (A)
                 (A) (A) (A) (A) (A) (A) (A) (A) (A) (A) (A) (A)
                 (A) (A) (A) (A) (A) (A) (A) (A) (A) (A) (A) (A)
                 (A) (A) (A) (A) (A) (A) (A) (A) (A) (A) (A) (A)
 The electronic state of the initial guess is 1-A.
 Requested convergence on RMS density matrix=1.00D-08 within 128 cycles.
 Requested convergence on MAX density matrix=1.00D-06.
 Requested convergence on             energy=1.00D-06.
 No special actions if energy rises.
 Integral accuracy reduced to 1.0D-05 until final iterations.
 Initial convergence to 1.0D-05 achieved.  Increase integral accuracy.
 SCF Done:  E(RHF) =  -1295.57155437     A.U. after   14 cycles
             Convg  =    0.9707D-08             -V/T =  2.0011

 **********************************************************************

            Population analysis using the SCF density.

 **********************************************************************

 Orbital symmetries:
       Occupied  (A) (A) (A) (A) (A) (A) (A) (A) (A) (A) (A) (A)
                 (A) (A) (A) (A) (A) (A) (A) (A) (A) (A) (A) (A)
                 (A) (A) (A) (A) (A) (A) (A) (A) (A) (A) (A) (A)
                 (A) (A) (A) (A) (A) (A) (A) (A) (A) (A) (A) (A)
                 (A) (A) (A) (A) (A) (A) (A) (A) (A) (A) (A) (A)
                 (A) (A) (A) (A) (A) (A) (A) (A) (A) (A) (A) (A)
                 (A) (A) (A) (A) (A) (A) (A) (A) (A) (A) (A) (A)
                 (A) (A) (A) (A) (A) (A) (A) (A) (A) (A) (A) (A)
                 (A) (A) (A) (A) (A) (A) (A) (A) (A) (A) (A) (A)
       Virtual   (A) (A) (A) (A) (A) (A) (A) (A) (A) (A) (A) (A)
                 (A) (A) (A) (A) (A) (A) (A) (A) (A) (A) (A) (A)
                 (A) (A) (A) (A) (A) (A) (A) (A) (A) (A) (A) (A)
                 (A) (A) (A) (A) (A) (A) (A) (A) (A) (A) (A) (A)
                 (A) (A) (A) (A) (A) (A) (A) (A) (A) (A) (A) (A)
                 (A) (A) (A) (A) (A) (A) (A) (A) (A) (A) (A) (A)
                 (A) (A) (A) (A) (A) (A) (A) (A) (A) (A) (A) (A)
                 (A) (A) (A) (A) (A) (A) (A) (A) (A) (A) (A) (A)
                 (A) (A) (A) (A) (A) (A) (A) (A) (A) (A) (A) (A)
                 (A) (A) (A) (A) (A) (A) (A) (A) (A) (A) (A) (A)
                 (A) (A) (A) (A) (A) (A) (A) (A) (A) (A) (A) (A)
                 (A) (A) (A) (A) (A) (A) (A) (A) (A) (A) (A) (A)
                 (A) (A) (A) (A) (A) (A) (A) (A) (A) (A) (A) (A)
                 (A) (A) (A) (A) (A) (A) (A) (A) (A) (A) (A) (A)
                 (A) (A) (A) (A) (A) (A) (A) (A) (A) (A) (A) (A)
                 (A) (A) (A) (A) (A) (A) (A) (A) (A) (A) (A) (A)
                 (A) (A) (A) (A) (A) (A) (A) (A) (A) (A) (A) (A)
                 (A) (A) (A) (A) (A) (A) (A) (A) (A) (A) (A) (A)
                 (A) (A) (A) (A) (A) (A) (A) (A) (A) (A) (A) (A)
                 (A) (A) (A) (A) (A) (A) (A) (A) (A) (A) (A) (A)
                 (A) (A) (A) (A) (A) (A) (A) (A) (A) (A) (A) (A)
                 (A) (A) (A) (A) (A) (A) (A) (A) (A) (A) (A) (A)
                 (A) (A) (A) (A) (A) (A) (A) (A) (A) (A) (A) (A)
                 (A) (A) (A) (A) (A) (A) (A) (A) (A) (A) (A) (A)
                 (A) (A) (A) (A) (A) (A) (A) (A) (A) (A) (A) (A)
                 (A) (A) (A) (A) (A) (A) (A) (A) (A) (A) (A) (A)
                 (A) (A) (A) (A) (A) (A) (A) (A) (A) (A) (A) (A)
                 (A) (A) (A) (A) (A) (A) (A) (A) (A) (A) (A) (A)
                 (A) (A) (A) (A) (A) (A) (A) (A) (A) (A) (A) (A)
                 (A) (A) (A) (A) (A) (A) (A) (A) (A) (A) (A) (A)
                 (A) (A) (A) (A) (A) (A) (A) (A) (A) (A) (A) (A)
                 (A) (A) (A) (A) (A) (A) (A) (A) (A) (A) (A) (A)
 The electronic state is 1-A.
 Alpha  occ. eigenvalues --  -20.52404 -20.52044 -20.51472 -20.51033 -15.58568
 Alpha  occ. eigenvalues --  -15.58335 -15.57934 -15.57373 -11.34612 -11.34257
 Alpha  occ. eigenvalues --  -11.34127 -11.33163 -11.29043 -11.28847 -11.25382
 Alpha  occ. eigenvalues --  -11.25365 -11.24345 -11.24005 -11.23680 -11.23496
 Alpha  occ. eigenvalues --  -11.23415 -11.23415 -11.23148 -11.23078 -11.22826
 Alpha  occ. eigenvalues --  -11.22215 -11.22012 -11.20944  -1.39770  -1.38958
 Alpha  occ. eigenvalues --   -1.38496  -1.37592  -1.24369  -1.23969  -1.23046
 Alpha  occ. eigenvalues --   -1.22904  -1.11619  -1.09640  -1.07731  -1.04634
 Alpha  occ. eigenvalues --   -1.01379  -0.99256  -0.98783  -0.95895  -0.95658
 Alpha  occ. eigenvalues --   -0.95038  -0.92854  -0.87486  -0.86186  -0.84116
 Alpha  occ. eigenvalues --   -0.81777  -0.79902  -0.78633  -0.77711  -0.77300
 Alpha  occ. eigenvalues --   -0.72706  -0.71775  -0.70718  -0.68462  -0.68194
 Alpha  occ. eigenvalues --   -0.67338  -0.65677  -0.64817  -0.64198  -0.64009
 Alpha  occ. eigenvalues --   -0.62681  -0.62244  -0.62136  -0.61812  -0.61558
 Alpha  occ. eigenvalues --   -0.60669  -0.59829  -0.59347  -0.59047  -0.58635
 Alpha  occ. eigenvalues --   -0.57824  -0.57568  -0.56952  -0.56708  -0.56430
 Alpha  occ. eigenvalues --   -0.55805  -0.55323  -0.55177  -0.54913  -0.54459
 Alpha  occ. eigenvalues --   -0.53642  -0.53342  -0.52739  -0.52148  -0.51431
 Alpha  occ. eigenvalues --   -0.50347  -0.50225  -0.50144  -0.49843  -0.49171
 Alpha  occ. eigenvalues --   -0.48747  -0.47458  -0.47062  -0.45669  -0.42319
 Alpha  occ. eigenvalues --   -0.41941  -0.41430  -0.39554  -0.39258  -0.38724
 Alpha  occ. eigenvalues --   -0.38113  -0.37350  -0.35641
 Alpha virt. eigenvalues --    0.15834   0.19230   0.19518   0.20481   0.20755
 Alpha virt. eigenvalues --    0.21162   0.21399   0.22153   0.22880   0.23532
 Alpha virt. eigenvalues --    0.25147   0.25300   0.25909   0.26791   0.27356
 Alpha virt. eigenvalues --    0.27451   0.28069   0.28566   0.29359   0.29804
 Alpha virt. eigenvalues --    0.30251   0.30756   0.30852   0.31120   0.31490
 Alpha virt. eigenvalues --    0.31886   0.32457   0.33063   0.33163   0.33502
 Alpha virt. eigenvalues --    0.33590   0.33958   0.34390   0.34891   0.35036
 Alpha virt. eigenvalues --    0.35496   0.36157   0.36356   0.36893   0.37429
 Alpha virt. eigenvalues --    0.38111   0.38658   0.39018   0.39489   0.40358
 Alpha virt. eigenvalues --    0.40687   0.41533   0.41846   0.43294   0.43367
 Alpha virt. eigenvalues --    0.44197   0.44791   0.45030   0.46505   0.46717
 Alpha virt. eigenvalues --    0.48035   0.49033   0.49526   0.51702   0.52526
 Alpha virt. eigenvalues --    0.53319   0.54635   0.57339   0.59009   0.60308
 Alpha virt. eigenvalues --    0.61431   0.63594   0.65008   0.68811   0.69557
 Alpha virt. eigenvalues --    0.70700   0.71045   0.71685   0.72014   0.73224
 Alpha virt. eigenvalues --    0.73624   0.74833   0.75328   0.75870   0.76141
 Alpha virt. eigenvalues --    0.76916   0.77217   0.78007   0.78268   0.78905
 Alpha virt. eigenvalues --    0.79897   0.80081   0.81418   0.82286   0.82958
 Alpha virt. eigenvalues --    0.83721   0.84599   0.84977   0.85278   0.86456
 Alpha virt. eigenvalues --    0.87346   0.87822   0.88530   0.89764   0.90674
 Alpha virt. eigenvalues --    0.90929   0.92018   0.92301   0.93304   0.93961
 Alpha virt. eigenvalues --    0.94798   0.95977   0.96519   0.97043   0.97513
 Alpha virt. eigenvalues --    0.98436   0.99258   0.99841   1.00310   1.00890
 Alpha virt. eigenvalues --    1.01129   1.01729   1.01947   1.02766   1.03440
 Alpha virt. eigenvalues --    1.03834   1.04676   1.05868   1.06687   1.07137
 Alpha virt. eigenvalues --    1.07993   1.08658   1.09805   1.09906   1.11868
 Alpha virt. eigenvalues --    1.12241   1.12867   1.13552   1.13868   1.14103
 Alpha virt. eigenvalues --    1.14426   1.14635   1.14760   1.15237   1.15452
 Alpha virt. eigenvalues --    1.15623   1.16041   1.16595   1.17629   1.17842
 Alpha virt. eigenvalues --    1.18285   1.18730   1.18957   1.19177   1.19387
 Alpha virt. eigenvalues --    1.20027   1.20421   1.20482   1.21069   1.21330
 Alpha virt. eigenvalues --    1.21656   1.21940   1.22037   1.22517   1.23265
 Alpha virt. eigenvalues --    1.23953   1.24034   1.24534   1.25521   1.25805
 Alpha virt. eigenvalues --    1.26833   1.27247   1.27962   1.28998   1.29241
 Alpha virt. eigenvalues --    1.29615   1.30437   1.30793   1.31327   1.31663
 Alpha virt. eigenvalues --    1.33537   1.34752   1.35341   1.37488   1.37704
 Alpha virt. eigenvalues --    1.38407   1.41350   1.41603   1.42046   1.43266
 Alpha virt. eigenvalues --    1.45130   1.46096   1.47402   1.48214   1.49370
 Alpha virt. eigenvalues --    1.50145   1.51100   1.52048   1.53951   1.55310
 Alpha virt. eigenvalues --    1.56681   1.58236   1.60219   1.61107   1.61364
 Alpha virt. eigenvalues --    1.63129   1.65082   1.65446   1.68031   1.69640
 Alpha virt. eigenvalues --    1.70513   1.71474   1.72405   1.73748   1.74468
 Alpha virt. eigenvalues --    1.75449   1.77350   1.78187   1.79934   1.81550
 Alpha virt. eigenvalues --    1.81840   1.83279   1.84155   1.86702   1.88944
 Alpha virt. eigenvalues --    1.89282   1.91005   1.91961   1.93359   1.94887
 Alpha virt. eigenvalues --    1.96531   1.98152   1.99136   2.00127   2.03005
 Alpha virt. eigenvalues --    2.04118   2.05563   2.06259   2.07058   2.08046
 Alpha virt. eigenvalues --    2.09236   2.10139   2.11165   2.11858   2.12030
 Alpha virt. eigenvalues --    2.13628   2.14120   2.15718   2.15834   2.16411
 Alpha virt. eigenvalues --    2.17462   2.18282   2.18736   2.19352   2.19794
 Alpha virt. eigenvalues --    2.21058   2.21622   2.22125   2.23022   2.23608
 Alpha virt. eigenvalues --    2.24529   2.24991   2.25693   2.26669   2.27403
 Alpha virt. eigenvalues --    2.28506   2.29427   2.30584   2.31062   2.32402
 Alpha virt. eigenvalues --    2.33152   2.33686   2.34624   2.35172   2.36423
 Alpha virt. eigenvalues --    2.36823   2.37776   2.38178   2.38885   2.39352
 Alpha virt. eigenvalues --    2.39953   2.41398   2.41917   2.43271   2.43760
 Alpha virt. eigenvalues --    2.45306   2.46399   2.48247   2.48838   2.49876
 Alpha virt. eigenvalues --    2.51903   2.52377   2.54323   2.54994   2.55672
 Alpha virt. eigenvalues --    2.56805   2.58234   2.58647   2.59591   2.60782
 Alpha virt. eigenvalues --    2.62194   2.62807   2.63973   2.64540   2.64788
 Alpha virt. eigenvalues --    2.67989   2.68493   2.69420   2.69842   2.71158
 Alpha virt. eigenvalues --    2.72808   2.73797   2.73970   2.75252   2.76000
 Alpha virt. eigenvalues --    2.77196   2.77605   2.79021   2.80057   2.80681
 Alpha virt. eigenvalues --    2.81325   2.82263   2.84495   2.85926   2.86602
 Alpha virt. eigenvalues --    2.87561   2.90141   2.90893   2.93607   2.95341
 Alpha virt. eigenvalues --    2.96216   2.97774   2.98298   3.01397   3.02829
 Alpha virt. eigenvalues --    3.03013   3.03345   3.04973   3.05703   3.08162
 Alpha virt. eigenvalues --    3.10576   3.11532   3.12699   3.15154   3.15674
 Alpha virt. eigenvalues --    3.16900   3.18117   3.22495   3.29280   3.30173
 Alpha virt. eigenvalues --    3.33986   3.36449   3.39864   3.40255   3.40963
 Alpha virt. eigenvalues --    3.42291   3.44972   3.55292   3.56791   3.57184
 Alpha virt. eigenvalues --    3.57192   4.38014   4.42886   4.47544   4.48769
 Alpha virt. eigenvalues --    4.51507   4.52716   4.56482   4.59822   4.61999
 Alpha virt. eigenvalues --    4.63369   4.65982   4.67084   4.69715   4.71022
 Alpha virt. eigenvalues --    4.72599   4.77422   4.79314   4.82720   4.84257
 Alpha virt. eigenvalues --    4.88914   4.92935   4.93531   4.96184   4.98831
 Alpha virt. eigenvalues --    5.01578   5.07375   5.23074   5.25398
          Condensed to atoms (all electrons):
 Mulliken atomic charges:
              1
     1  C   -0.282177
     2  N   -0.844690
     3  C    0.814994
     4  O   -0.578636
     5  C    0.109297
     6  C   -0.476175
     7  C   -0.371096
     8  C   -0.305525
     9  C   -0.361490
    10  C   -0.184035
    11  C   -0.176444
    12  C   -0.355392
    13  C   -0.311932
    14  C   -0.329731
    15  C    0.091314
    16  C   -0.509725
    17  N   -0.787489
    18  C    0.767204
    19  C   -0.595854
    20  O   -0.613118
    21  C    0.820057
    22  O   -0.639100
    23  N   -0.806636
    24  C   -0.275904
    25  N   -0.822073
    26  C    0.740407
    27  C   -0.588740
    28  O   -0.565427
    29  H    0.184572
    30  H    0.205278
    31  H    0.168063
    32  H    0.394373
    33  H    0.169642
    34  H    0.146010
    35  H    0.236806
    36  H    0.170517
    37  H    0.168891
    38  H    0.169621
    39  H    0.177746
    40  H    0.232474
    41  H    0.175405
    42  H    0.150886
    43  H    0.175743
    44  H    0.180783
    45  H    0.164273
    46  H    0.154442
    47  H    0.199631
    48  H    0.174648
    49  H    0.183157
    50  H    0.184354
    51  H    0.148204
    52  H    0.227974
    53  H    0.389496
    54  H    0.212222
    55  H    0.209559
    56  H    0.176555
    57  H    0.395924
    58  H    0.165732
    59  H    0.198410
    60  H    0.186491
    61  H    0.376573
    62  H    0.217358
    63  H    0.172959
    64  H    0.193339
 Sum of Mulliken atomic charges =   0.00000
 Mulliken charges with hydrogens summed into heavy atoms:
              1
     1  C    0.275736
     2  N   -0.450316
     3  C    0.814994
     4  O   -0.578636
     5  C    0.109297
     6  C    0.076284
     7  C   -0.031687
     8  C    0.041843
     9  C    0.046389
    10  C   -0.033149
    11  C   -0.000701
    12  C   -0.010336
    13  C    0.042141
    14  C    0.028075
    15  C    0.091314
    16  C    0.050808
    17  N   -0.397993
    18  C    0.767204
    19  C    0.002482
    20  O   -0.613118
    21  C    0.820057
    22  O   -0.639100
    23  N   -0.410711
    24  C    0.274729
    25  N   -0.445500
    26  C    0.740407
    27  C   -0.005085
    28  O   -0.565427
 Sum of Mulliken charges with hydrogens summed into heavy atoms =   0.00000
 Electronic spatial extent (au):  <R**2>=          21787.2181
 Charge=              0.0000 electrons
 Dipole moment (field-independent basis, Debye):
    X=              0.7002    Y=             -5.9265    Z=              4.8751  Tot=              7.7058
 Quadrupole moment (field-independent basis, Debye-Ang):
   XX=           -219.9111   YY=           -161.3914   ZZ=           -169.8849
   XY=             24.4517   XZ=            -11.0643   YZ=              8.9894
 Traceless Quadrupole moment (field-independent basis, Debye-Ang):
   XX=            -36.1820   YY=             22.3377   ZZ=             13.8442
   XY=             24.4517   XZ=            -11.0643   YZ=              8.9894
 Octapole moment (field-independent basis, Debye-Ang**2):
  XXX=           -100.2779  YYY=             35.3019  ZZZ=              6.4402  XYY=             89.2226
  XXY=           -304.0437  XXZ=            124.7694  XZZ=            -10.9560  YZZ=              1.8494
  YYZ=              6.4834  XYZ=             13.3815
 Hexadecapole moment (field-independent basis, Debye-Ang**3):
 XXXX=         -27856.3795 YYYY=          -2201.8162 ZZZZ=          -1216.5308 XXXY=            793.3996
 XXXZ=           -937.6739 YYYX=            159.9480 YYYZ=             11.6217 ZZZX=             -5.2852
 ZZZY=              5.2255 XXYY=          -4399.0397 XXZZ=          -4252.8224 YYZZ=           -583.5739
 XXYZ=            238.4535 YYXZ=            -74.7026 ZZXY=              9.8265
 N-N= 2.704183097547D+03 E-N=-8.440148917974D+03  KE= 1.294210577344D+03
 1\1\GINC-MOSURA\SP\RHF\6-31G(d)\C20H36N4O4\MARIE\05-Dec-2019\0\\#SP HF
 /6-31G* Geom=(ModRedundant)\\paramfit run\\0,1\C,0,0.,0.,0.\N,0,1.4481
 87,0.,0.\C,0,2.1232,0.47592,1.072365\O,0,1.590179,0.696732,2.124447\C,
 0,3.650505,0.594143,0.921539\C,0,4.329885,0.160593,2.224734\C,0,4.1359
 78,-0.257385,-0.28296\C,0,3.889713,-1.776873,-0.271038\C,0,2.504189,-2
 .280397,-0.722066\C,0,2.112499,-1.839055,-2.112775\C,0,2.209206,-2.532
 131,-3.23574\C,0,2.736561,-3.936739,-3.405228\C,0,1.643899,-5.007612,-
 3.575188\C,0,0.774915,-4.775099,-4.818458\C,0,-0.247813,-5.873731,-5.2
 07921\C,0,-1.023355,-5.372092,-6.436881\N,0,0.482494,-7.084847,-5.5563
 18\C,0,-0.163894,-8.26167,-5.801933\C,0,0.71574,-9.490549,-5.771828\O,
 0,-1.340803,-8.323841,-6.0259\C,0,-1.133373,-6.179142,-3.978598\O,0,-0
 .75318,-6.943243,-3.132707\N,0,-2.283048,-5.481988,-3.851305\C,0,-3.18
 3779,-5.754918,-2.750217\N,0,4.026618,1.973282,0.578109\C,0,3.753645,3
 .051108,1.367698\C,0,4.521227,4.310773,1.023922\O,0,2.956381,3.012291,
 2.261568\H,0,-0.403259,1.006147,0.\H,0,-0.36496,-0.516002,0.875939\H,0
 ,-0.345658,-0.522086,-0.883346\H,0,1.904244,0.070913,-0.879357\H,0,4.0
 44504,-0.8435,2.499121\H,0,5.407964,0.201554,2.101011\H,0,4.043361,0.8
 15675,3.034486\H,0,5.212317,-0.108106,-0.332291\H,0,3.727721,0.170024,
 -1.193415\H,0,4.627771,-2.213021,-0.93787\H,0,4.099581,-2.179014,0.714
 665\H,0,1.745475,-1.956927,-0.021292\H,0,2.522718,-3.363057,-0.664286\
 H,0,1.704961,-0.843327,-2.180241\H,0,1.872955,-2.052489,-4.141632\H,0,
 3.352169,-4.212013,-2.557457\H,0,3.391845,-3.957671,-4.275147\H,0,2.13
 4534,-5.975825,-3.622247\H,0,1.024678,-5.030425,-2.688129\H,0,1.416231
 ,-4.628136,-5.684858\H,0,0.218424,-3.854898,-4.68467\H,0,-0.335449,-5.
 286314,-7.269952\H,0,-1.44475,-4.387802,-6.260871\H,0,-1.809879,-6.056
 024,-6.718584\H,0,1.373387,-7.182244,-5.125579\H,0,0.233708,-10.283664
 ,-6.322895\H,0,0.83432,-9.805856,-4.739527\H,0,1.699262,-9.29887,-6.18
 695\H,0,-2.670454,-5.05736,-4.660575\H,0,-3.974709,-5.0165,-2.75969\H,
 0,-2.648093,-5.685501,-1.814883\H,0,-3.619857,-6.746037,-2.822833\H,0,
 4.797367,2.065519,-0.045579\H,0,3.982791,5.164043,1.409915\H,0,4.66767
 8,4.423635,-0.044424\H,0,5.496651,4.274088,1.498266\\Version=EM64L-G09
 RevA.02\State=1-A\HF=-1295.5715544\RMSD=9.707e-09\Dipole=1.8036731,0.5
 24897,-2.3795955\Quadrupole=23.8700874,-7.0384466,-16.8316408,-2.47501
 45,-0.0723945,-23.1963516\PG=C01 [X(C20H36N4O4)]\\@


 QUANTUM MECHANICS IS BOHRING -- M.S. GORDON
 Job cpu time:  0 days  0 hours  5 minutes 24.3 seconds.
 File lengths (MBytes):  RWF=    132 Int=      0 D2E=      0 Chk=     10 Scr=      1
 Normal termination of Gaussian 09 at Thu Dec  5 16:21:28 2019.
