 Entering Gaussian System, Link 0=g09
 Input=PSI_-110.gau
 Output=PSI_-110.log
 Initial command:
 /home/marie/Utilities//g09/l1.exe /tmp/g09/Gau-4473.inp -scrdir=/tmp/g09/
 Entering Link 1 = /home/marie/Utilities//g09/l1.exe PID=      4475.
  
 Copyright (c) 1988,1990,1992,1993,1995,1998,2003,2009, Gaussian, Inc.
                  All Rights Reserved.
  
 This is part of the Gaussian(R) 09 program.  It is based on
 the Gaussian(R) 03 system (copyright 2003, Gaussian, Inc.),
 the Gaussian(R) 98 system (copyright 1998, Gaussian, Inc.),
 the Gaussian(R) 94 system (copyright 1995, Gaussian, Inc.),
 the Gaussian 92(TM) system (copyright 1992, Gaussian, Inc.),
 the Gaussian 90(TM) system (copyright 1990, Gaussian, Inc.),
 the Gaussian 88(TM) system (copyright 1988, Gaussian, Inc.),
 the Gaussian 86(TM) system (copyright 1986, Carnegie Mellon
 University), and the Gaussian 82(TM) system (copyright 1983,
 Carnegie Mellon University). Gaussian is a federally registered
 trademark of Gaussian, Inc.
  
 This software contains proprietary and confidential information,
 including trade secrets, belonging to Gaussian, Inc.
  
 This software is provided under written license and may be
 used, copied, transmitted, or stored only in accord with that
 written license.
  
 The following legend is applicable only to US Government
 contracts under FAR:
  
                    RESTRICTED RIGHTS LEGEND
  
 Use, reproduction and disclosure by the US Government is
 subject to restrictions as set forth in subparagraphs (a)
 and (c) of the Commercial Computer Software - Restricted
 Rights clause in FAR 52.227-19.
  
 Gaussian, Inc.
 340 Quinnipiac St., Bldg. 40, Wallingford CT 06492
  
  
 ---------------------------------------------------------------
 Warning -- This program may not be used in any manner that
 competes with the business of Gaussian, Inc. or will provide
 assistance to any competitor of Gaussian, Inc.  The licensee
 of this program is prohibited from giving any competitor of
 Gaussian, Inc. access to this program.  By using this program,
 the user acknowledges that Gaussian, Inc. is engaged in the
 business of creating and licensing software in the field of
 computational chemistry and represents and warrants to the
 licensee that it is not a competitor of Gaussian, Inc. and that
 it will not use this program in any manner prohibited above.
 ---------------------------------------------------------------
  

 Cite this work as:
 Gaussian 09, Revision A.02,
 M. J. Frisch, G. W. Trucks, H. B. Schlegel, G. E. Scuseria, 
 M. A. Robb, J. R. Cheeseman, G. Scalmani, V. Barone, B. Mennucci, 
 G. A. Petersson, H. Nakatsuji, M. Caricato, X. Li, H. P. Hratchian, 
 A. F. Izmaylov, J. Bloino, G. Zheng, J. L. Sonnenberg, M. Hada, 
 M. Ehara, K. Toyota, R. Fukuda, J. Hasegawa, M. Ishida, T. Nakajima, 
 Y. Honda, O. Kitao, H. Nakai, T. Vreven, J. A. Montgomery, Jr., 
 J. E. Peralta, F. Ogliaro, M. Bearpark, J. J. Heyd, E. Brothers, 
 K. N. Kudin, V. N. Staroverov, R. Kobayashi, J. Normand, 
 K. Raghavachari, A. Rendell, J. C. Burant, S. S. Iyengar, J. Tomasi, 
 M. Cossi, N. Rega, J. M. Millam, M. Klene, J. E. Knox, J. B. Cross, 
 V. Bakken, C. Adamo, J. Jaramillo, R. Gomperts, R. E. Stratmann, 
 O. Yazyev, A. J. Austin, R. Cammi, C. Pomelli, J. W. Ochterski, 
 R. L. Martin, K. Morokuma, V. G. Zakrzewski, G. A. Voth, 
 P. Salvador, J. J. Dannenberg, S. Dapprich, A. D. Daniels, 
 O. Farkas, J. B. Foresman, J. V. Ortiz, J. Cioslowski, 
 and D. J. Fox, Gaussian, Inc., Wallingford CT, 2009.
 
 ******************************************
 Gaussian 09:  EM64L-G09RevA.02 11-Jun-2009
                 5-Dec-2019 
 ******************************************
 %chk=PSI_-110
 %NoSave
 ---------------------------------
 #SP HF/6-31G* Geom=(ModRedundant)
 ---------------------------------
 1/18=120,38=1/1;
 2/12=2,17=6,18=5,40=1/2;
 3/5=1,6=6,7=1,11=9,16=1,25=1,30=1/1,2,3;
 4//1;
 5/5=2,38=5/2;
 6/7=2,8=2,9=2,10=2,28=1/1;
 99/5=1,9=1/99;
 ------------
 paramfit run
 ------------
 Symbolic Z-matrix:
 Charge =  0 Multiplicity = 1
 C-CT--0.3208          0.        0.        0. 
 N-N--0.5622           1.44819   0.        0. 
 C-C-0.8053            2.1232    0.47592   1.07237 
 O-O--0.6151           1.59018   0.69673   2.12445 
 C-CX-0.0839           3.65051   0.59414   0.92154 
 C-CU--0.3230          4.33588  -0.45586   1.80223 
 C-CU--0.0657          4.05399   0.43598  -0.5697 
 C-CU--0.0109          3.71858  -0.87752  -1.29899 
 C-CU-0.0816           2.29468  -1.03603  -1.86822 
 C-CM--0.2354          1.89464   0.05307  -2.83574 
 C-CM--0.2653          1.92162   0.0068   -4.15782 
 C-CU-0.1214           2.36042  -1.14694  -5.02736 
 C-CU--0.0354          1.20232  -1.94832  -5.64877 
 C-CU--0.0984          0.31735  -1.09502  -6.56726 
 C-CU-0.1300          -0.77818  -1.81406  -7.39639 
 C-CU--0.3561         -1.5536   -0.73821  -8.17403 
 N-N--0.7186          -0.12993  -2.719    -8.33574 
 C-C-0.8537           -0.85088  -3.59192  -9.09817 
 C-CT--0.3868         -0.04506  -4.70621  -9.72572 
 O-O--0.6323          -2.03471  -3.48883  -9.26267 
 C-C-0.7903           -1.64878  -2.65557  -6.43585 
 O-O--0.6136          -1.29315  -3.75315  -6.10006 
 N-N--0.5650          -2.75157  -2.06996  -5.92116 
 C-CT--0.3231         -3.63864  -2.81897  -5.05498 
 N-N--0.7191           4.09877   1.94574   1.28715 
 C-C-0.8539            3.91021   2.49808   2.51964 
 C-CT--0.3903          4.74205   3.73111   2.80567 
 O-O--0.6290           3.13499   2.051     3.31669 
 H-H1-0.1459          -0.40326   1.00615   0. 
 H-H1-0.1459          -0.36496  -0.516     0.87594 
 H-H1-0.1459          -0.34566  -0.52209  -0.88335 
 H-H-0.3572            1.90424   0.07091  -0.87936 
 H-HC-0.0997           3.99861  -1.45155   1.55775 
 H-HC-0.0997           5.411    -0.40066   1.65976 
 H-HC-0.0997           4.10928  -0.27945   2.8436 
 H-HC-0.0347           5.13568   0.54815  -0.59393 
 H-HC-0.0347           3.64878   1.2749   -1.12674 
 H-HC-0.0243           4.41237  -0.95271  -2.13124 
 H-HC-0.0243           3.92922  -1.72425  -0.65398 
 H-HC-0.0171           1.57448  -1.07458  -1.06126 
 H-HC-0.0171           2.25054  -2.00394  -2.35508 
 H-HA-0.1313           1.54519   0.96553  -2.38031 
 H-HA-0.1359           1.59147   0.88593  -4.68874 
 H-HC-0.0092           2.97997  -1.83087  -4.46003 
 H-HC-0.0092           2.99103  -0.75804  -5.82592 
 H-HC-0.0318           1.63342  -2.78322  -6.19418 
 H-HC-0.0318           0.60554  -2.38505  -4.85886 
 H-HC-0.0435           0.94405  -0.5618   -7.27892 
 H-HC-0.0435          -0.18011  -0.3423   -5.96702 
 H-HC-0.1066          -0.88318  -0.2764   -8.88947 
 H-HC-0.1066          -1.91138   0.04383  -7.51238 
 H-HC-0.1066          -2.38613  -1.16051  -8.71652 
 H-H-0.3529            0.76428  -3.05211  -8.05619 
 H-HC-0.1047          -0.58703  -5.10106  -10.57155 
 H-HC-0.1047           0.08081  -5.4973   -8.9926 
 H-HC-0.1047           0.93724  -4.37184  -10.04144 
 H-H-0.3615           -3.13356  -1.28455  -6.39289 
 H-H1-0.1469          -4.38445  -2.14352  -4.65693 
 H-H1-0.1469          -3.07622  -3.24455  -4.23693 
 H-H1-0.1469          -4.13434  -3.62508  -5.58624 
 H-H-0.3570            4.85755   2.30585   0.75225 
 H-HC-0.1060           4.26504   4.29974   3.59059 
 H-HC-0.1060           4.86777   4.35436   1.92743 
 H-HC-0.1060           5.72531   3.42568   3.14875 
 
 The following ModRedundant input section has been read:
 D    *    3    5    * F                                                       
 Stoichiometry    C20H36N4O4
 Framework group  C1[X(C20H36N4O4)]
 Deg. of freedom   186
 Full point group                 C1      NOp   1
 Largest Abelian subgroup         C1      NOp   1
 Largest concise Abelian subgroup C1      NOp   1
                         Standard orientation:                         
 ---------------------------------------------------------------------
 Center     Atomic      Atomic             Coordinates (Angstroms)
 Number     Number       Type             X           Y           Z
 ---------------------------------------------------------------------
      1          6    20001001       -2.451343    2.400553   -0.106331
      2          7    20001014       -3.041155    1.099824   -0.346067
      3          6    20001002       -4.387586    0.963890   -0.373553
      4          8    20001024       -5.130149    1.904653   -0.431078
      5          6    90000001       -4.927828   -0.474480   -0.466379
      6          6    90000002       -5.550691   -0.700475   -1.847976
      7          6    90000002       -3.789557   -1.492107   -0.182876
      8          6    90000002       -2.555838   -1.508447   -1.103368
      9          6    90000002       -1.442172   -0.479412   -0.825028
     10          6    20001004       -0.877644   -0.547965    0.574574
     11          6    20001004        0.231243   -1.153310    0.967872
     12          6    90000002        1.207154   -1.927053    0.114248
     13          6    90000002        2.495355   -1.158214   -0.230700
     14          6    90000002        3.304249   -0.769119    1.013973
     15          6    90000002        4.709560   -0.147992    0.804335
     16          6    90000002        5.273539    0.204122    2.190479
     17          7    20001014        5.565795   -1.141117    0.170225
     18          6    20001002        6.820197   -0.826753   -0.266477
     19          6    20001001        7.430118   -1.823843   -1.224920
     20          8    20001024        7.401175    0.163977    0.080018
     21          6    20001002        4.576215    1.058182   -0.152788
     22          8    20001024        4.559818    0.888911   -1.342329
     23          7    20001014        4.378132    2.273603    0.401737
     24          6    20001001        4.295768    3.452875   -0.435362
     25          7    20001014       -5.918368   -0.719480    0.592033
     26          6    20001002       -7.075079   -0.009554    0.725059
     27          6    20001001       -8.111334   -0.633785    1.636449
     28          8    20001024       -7.257713    1.038168    0.172731
     29          1    20001035       -2.661576    2.760434    0.894287
     30          1    20001035       -2.841215    3.114627   -0.816839
     31          1    20001035       -1.379516    2.323873   -0.239226
     32          1    20001029       -2.519879    0.303451   -0.062613
     33          1    20001034       -4.838849   -0.502732   -2.634813
     34          1    20001034       -5.890285   -1.728888   -1.927227
     35          1    20001034       -6.392595   -0.039538   -1.993873
     36          1    20001034       -4.251645   -2.474566   -0.249745
     37          1    20001034       -3.472167   -1.374979    0.848543
     38          1    20001034       -2.116299   -2.497292   -1.010578
     39          1    20001034       -2.864451   -1.412120   -2.139154
     40          1    20001034       -1.807527    0.522309   -1.010586
     41          1    20001034       -0.657894   -0.651580   -1.553795
     42          1    20001033       -1.454764   -0.035972    1.327509
     43          1    20001033        0.481312   -1.092216    2.015485
     44          1    20001034        0.736200   -2.232525   -0.812227
     45          1    20001034        1.471600   -2.845413    0.637008
     46          1    20001034        3.085400   -1.783276   -0.895169
     47          1    20001034        2.242146   -0.273934   -0.800581
     48          1    20001034        3.444098   -1.646099    1.642371
     49          1    20001034        2.726079   -0.060158    1.594872
     50          1    20001034        5.425315   -0.713622    2.746620
     51          1    20001034        4.576355    0.814552    2.755006
     52          1    20001034        6.222235    0.714359    2.117176
     53          1    20001029        5.092431   -1.820610   -0.380163
     54          1    20001034        8.503252   -1.708001   -1.219722
     55          1    20001034        7.061843   -1.612770   -2.224393
     56          1    20001034        7.168926   -2.845685   -0.971936
     57          1    20001029        4.634835    2.407510    1.351200
     58          1    20001035        4.016139    4.296187    0.182340
     59          1    20001035        3.542826    3.308339   -1.196160
     60          1    20001035        5.240757    3.666394   -0.924402
     61          1    20001029       -5.915302   -1.636987    0.978967
     62          1    20001034       -8.783342    0.138416    1.981535
     63          1    20001034       -7.662017   -1.134236    2.486868
     64          1    20001034       -8.684255   -1.365401    1.075823
 ---------------------------------------------------------------------
 Rotational constants (GHZ):      0.4469020      0.0499138      0.0478519
 Standard basis: 6-31G(d) (6D, 7F)
 There are   492 symmetry adapted basis functions of A   symmetry.
 Integral buffers will be    131072 words long.
 Raffenetti 1 integral format.
 Two-electron integral symmetry is turned on.
   492 basis functions,   928 primitive gaussians,   492 cartesian basis functions
   108 alpha electrons      108 beta electrons
       nuclear repulsion energy      2713.3998054172 Hartrees.
 NAtoms=   64 NActive=   64 NUniq=   64 SFac= 7.50D-01 NAtFMM=   80 NAOKFM=F Big=T
 One-electron integrals computed using PRISM.
 NBasis=   492 RedAO= T  NBF=   492
 NBsUse=   492 1.00D-06 NBFU=   492
 Harris functional with IExCor=  205 diagonalized for initial guess.
 ExpMin= 1.61D-01 ExpMax= 5.48D+03 ExpMxC= 8.25D+02 IAcc=1 IRadAn=         1 AccDes= 0.00D+00
 HarFok:  IExCor=  205 AccDes= 0.00D+00 IRadAn=         1 IDoV= 1
 ScaDFX=  1.000000  1.000000  1.000000  1.000000
 FoFCou: FMM=F IPFlag=           0 FMFlag=      100000 FMFlg1=           1
         NFxFlg=           0 DoJE=T BraDBF=F KetDBF=T FulRan=T
         Omega=  0.000000  0.000000  1.000000  0.000000  0.000000 ICntrl=     500 IOpCl=  0
         NMat0=    1 NMatS0=    1 NMatT0=    0 NMatD0=    1 NMtDS0=    0 NMtDT0=    0
         I1Cent=           4 NGrid=           0.
 Petite list used in FoFCou.
 Initial guess orbital symmetries:
       Occupied  (A) (A) (A) (A) (A) (A) (A) (A) (A) (A) (A) (A)
                 (A) (A) (A) (A) (A) (A) (A) (A) (A) (A) (A) (A)
                 (A) (A) (A) (A) (A) (A) (A) (A) (A) (A) (A) (A)
                 (A) (A) (A) (A) (A) (A) (A) (A) (A) (A) (A) (A)
                 (A) (A) (A) (A) (A) (A) (A) (A) (A) (A) (A) (A)
                 (A) (A) (A) (A) (A) (A) (A) (A) (A) (A) (A) (A)
                 (A) (A) (A) (A) (A) (A) (A) (A) (A) (A) (A) (A)
                 (A) (A) (A) (A) (A) (A) (A) (A) (A) (A) (A) (A)
                 (A) (A) (A) (A) (A) (A) (A) (A) (A) (A) (A) (A)
       Virtual   (A) (A) (A) (A) (A) (A) (A) (A) (A) (A) (A) (A)
                 (A) (A) (A) (A) (A) (A) (A) (A) (A) (A) (A) (A)
                 (A) (A) (A) (A) (A) (A) (A) (A) (A) (A) (A) (A)
                 (A) (A) (A) (A) (A) (A) (A) (A) (A) (A) (A) (A)
                 (A) (A) (A) (A) (A) (A) (A) (A) (A) (A) (A) (A)
                 (A) (A) (A) (A) (A) (A) (A) (A) (A) (A) (A) (A)
                 (A) (A) (A) (A) (A) (A) (A) (A) (A) (A) (A) (A)
                 (A) (A) (A) (A) (A) (A) (A) (A) (A) (A) (A) (A)
                 (A) (A) (A) (A) (A) (A) (A) (A) (A) (A) (A) (A)
                 (A) (A) (A) (A) (A) (A) (A) (A) (A) (A) (A) (A)
                 (A) (A) (A) (A) (A) (A) (A) (A) (A) (A) (A) (A)
                 (A) (A) (A) (A) (A) (A) (A) (A) (A) (A) (A) (A)
                 (A) (A) (A) (A) (A) (A) (A) (A) (A) (A) (A) (A)
                 (A) (A) (A) (A) (A) (A) (A) (A) (A) (A) (A) (A)
                 (A) (A) (A) (A) (A) (A) (A) (A) (A) (A) (A) (A)
                 (A) (A) (A) (A) (A) (A) (A) (A) (A) (A) (A) (A)
                 (A) (A) (A) (A) (A) (A) (A) (A) (A) (A) (A) (A)
                 (A) (A) (A) (A) (A) (A) (A) (A) (A) (A) (A) (A)
                 (A) (A) (A) (A) (A) (A) (A) (A) (A) (A) (A) (A)
                 (A) (A) (A) (A) (A) (A) (A) (A) (A) (A) (A) (A)
                 (A) (A) (A) (A) (A) (A) (A) (A) (A) (A) (A) (A)
                 (A) (A) (A) (A) (A) (A) (A) (A) (A) (A) (A) (A)
                 (A) (A) (A) (A) (A) (A) (A) (A) (A) (A) (A) (A)
                 (A) (A) (A) (A) (A) (A) (A) (A) (A) (A) (A) (A)
                 (A) (A) (A) (A) (A) (A) (A) (A) (A) (A) (A) (A)
                 (A) (A) (A) (A) (A) (A) (A) (A) (A) (A) (A) (A)
                 (A) (A) (A) (A) (A) (A) (A) (A) (A) (A) (A) (A)
                 (A) (A) (A) (A) (A) (A) (A) (A) (A) (A) (A) (A)
                 (A) (A) (A) (A) (A) (A) (A) (A) (A) (A) (A) (A)
                 (A) (A) (A) (A) (A) (A) (A) (A) (A) (A) (A) (A)
                 (A) (A) (A) (A) (A) (A) (A) (A) (A) (A) (A) (A)
                 (A) (A) (A) (A) (A) (A) (A) (A) (A) (A) (A) (A)
 The electronic state of the initial guess is 1-A.
 Requested convergence on RMS density matrix=1.00D-08 within 128 cycles.
 Requested convergence on MAX density matrix=1.00D-06.
 Requested convergence on             energy=1.00D-06.
 No special actions if energy rises.
 Integral accuracy reduced to 1.0D-05 until final iterations.
 Initial convergence to 1.0D-05 achieved.  Increase integral accuracy.
 SCF Done:  E(RHF) =  -1295.46775087     A.U. after   15 cycles
             Convg  =    0.5063D-08             -V/T =  2.0006

 **********************************************************************

            Population analysis using the SCF density.

 **********************************************************************

 Orbital symmetries:
       Occupied  (A) (A) (A) (A) (A) (A) (A) (A) (A) (A) (A) (A)
                 (A) (A) (A) (A) (A) (A) (A) (A) (A) (A) (A) (A)
                 (A) (A) (A) (A) (A) (A) (A) (A) (A) (A) (A) (A)
                 (A) (A) (A) (A) (A) (A) (A) (A) (A) (A) (A) (A)
                 (A) (A) (A) (A) (A) (A) (A) (A) (A) (A) (A) (A)
                 (A) (A) (A) (A) (A) (A) (A) (A) (A) (A) (A) (A)
                 (A) (A) (A) (A) (A) (A) (A) (A) (A) (A) (A) (A)
                 (A) (A) (A) (A) (A) (A) (A) (A) (A) (A) (A) (A)
                 (A) (A) (A) (A) (A) (A) (A) (A) (A) (A) (A) (A)
       Virtual   (A) (A) (A) (A) (A) (A) (A) (A) (A) (A) (A) (A)
                 (A) (A) (A) (A) (A) (A) (A) (A) (A) (A) (A) (A)
                 (A) (A) (A) (A) (A) (A) (A) (A) (A) (A) (A) (A)
                 (A) (A) (A) (A) (A) (A) (A) (A) (A) (A) (A) (A)
                 (A) (A) (A) (A) (A) (A) (A) (A) (A) (A) (A) (A)
                 (A) (A) (A) (A) (A) (A) (A) (A) (A) (A) (A) (A)
                 (A) (A) (A) (A) (A) (A) (A) (A) (A) (A) (A) (A)
                 (A) (A) (A) (A) (A) (A) (A) (A) (A) (A) (A) (A)
                 (A) (A) (A) (A) (A) (A) (A) (A) (A) (A) (A) (A)
                 (A) (A) (A) (A) (A) (A) (A) (A) (A) (A) (A) (A)
                 (A) (A) (A) (A) (A) (A) (A) (A) (A) (A) (A) (A)
                 (A) (A) (A) (A) (A) (A) (A) (A) (A) (A) (A) (A)
                 (A) (A) (A) (A) (A) (A) (A) (A) (A) (A) (A) (A)
                 (A) (A) (A) (A) (A) (A) (A) (A) (A) (A) (A) (A)
                 (A) (A) (A) (A) (A) (A) (A) (A) (A) (A) (A) (A)
                 (A) (A) (A) (A) (A) (A) (A) (A) (A) (A) (A) (A)
                 (A) (A) (A) (A) (A) (A) (A) (A) (A) (A) (A) (A)
                 (A) (A) (A) (A) (A) (A) (A) (A) (A) (A) (A) (A)
                 (A) (A) (A) (A) (A) (A) (A) (A) (A) (A) (A) (A)
                 (A) (A) (A) (A) (A) (A) (A) (A) (A) (A) (A) (A)
                 (A) (A) (A) (A) (A) (A) (A) (A) (A) (A) (A) (A)
                 (A) (A) (A) (A) (A) (A) (A) (A) (A) (A) (A) (A)
                 (A) (A) (A) (A) (A) (A) (A) (A) (A) (A) (A) (A)
                 (A) (A) (A) (A) (A) (A) (A) (A) (A) (A) (A) (A)
                 (A) (A) (A) (A) (A) (A) (A) (A) (A) (A) (A) (A)
                 (A) (A) (A) (A) (A) (A) (A) (A) (A) (A) (A) (A)
                 (A) (A) (A) (A) (A) (A) (A) (A) (A) (A) (A) (A)
                 (A) (A) (A) (A) (A) (A) (A) (A) (A) (A) (A) (A)
                 (A) (A) (A) (A) (A) (A) (A) (A) (A) (A) (A) (A)
                 (A) (A) (A) (A) (A) (A) (A) (A) (A) (A) (A) (A)
                 (A) (A) (A) (A) (A) (A) (A) (A) (A) (A) (A) (A)
                 (A) (A) (A) (A) (A) (A) (A) (A) (A) (A) (A) (A)
 The electronic state is 1-A.
 Alpha  occ. eigenvalues --  -20.52495 -20.52173 -20.50207 -20.50167 -15.58453
 Alpha  occ. eigenvalues --  -15.58038 -15.57913 -15.56264 -11.34704 -11.34252
 Alpha  occ. eigenvalues --  -11.33286 -11.32671 -11.29160 -11.28779 -11.25509
 Alpha  occ. eigenvalues --  -11.25506 -11.24323 -11.24150 -11.24093 -11.23977
 Alpha  occ. eigenvalues --  -11.23882 -11.23633 -11.23285 -11.22909 -11.22528
 Alpha  occ. eigenvalues --  -11.22301 -11.21446 -11.21374  -1.39881  -1.38606
 Alpha  occ. eigenvalues --   -1.38511  -1.36594  -1.25461  -1.24076  -1.23201
 Alpha  occ. eigenvalues --   -1.23165  -1.12140  -1.09905  -1.07955  -1.05335
 Alpha  occ. eigenvalues --   -1.01592  -0.99324  -0.98680  -0.96587  -0.95818
 Alpha  occ. eigenvalues --   -0.95292  -0.93477  -0.88248  -0.86383  -0.84905
 Alpha  occ. eigenvalues --   -0.82912  -0.80028  -0.78739  -0.77656  -0.77413
 Alpha  occ. eigenvalues --   -0.73513  -0.71945  -0.70605  -0.68560  -0.67769
 Alpha  occ. eigenvalues --   -0.66723  -0.65284  -0.64751  -0.64393  -0.63988
 Alpha  occ. eigenvalues --   -0.62855  -0.62247  -0.61938  -0.61896  -0.61630
 Alpha  occ. eigenvalues --   -0.61178  -0.59977  -0.59372  -0.59274  -0.59060
 Alpha  occ. eigenvalues --   -0.57625  -0.57120  -0.56893  -0.56843  -0.56450
 Alpha  occ. eigenvalues --   -0.55687  -0.55402  -0.55331  -0.55090  -0.54080
 Alpha  occ. eigenvalues --   -0.53717  -0.53330  -0.52856  -0.52344  -0.51018
 Alpha  occ. eigenvalues --   -0.50540  -0.50329  -0.50087  -0.49384  -0.49042
 Alpha  occ. eigenvalues --   -0.48286  -0.47357  -0.47177  -0.45894  -0.42710
 Alpha  occ. eigenvalues --   -0.42059  -0.41525  -0.39371  -0.38849  -0.38469
 Alpha  occ. eigenvalues --   -0.37494  -0.36064  -0.35131
 Alpha virt. eigenvalues --    0.15540   0.19123   0.19873   0.20882   0.21055
 Alpha virt. eigenvalues --    0.21270   0.21397   0.22517   0.23132   0.23546
 Alpha virt. eigenvalues --    0.25143   0.25381   0.25756   0.26779   0.26980
 Alpha virt. eigenvalues --    0.27351   0.27949   0.28834   0.29111   0.29803
 Alpha virt. eigenvalues --    0.30709   0.30743   0.30949   0.31273   0.31354
 Alpha virt. eigenvalues --    0.31753   0.31999   0.33000   0.33225   0.33563
 Alpha virt. eigenvalues --    0.33824   0.33907   0.34265   0.34557   0.34801
 Alpha virt. eigenvalues --    0.35258   0.35751   0.36062   0.36649   0.37048
 Alpha virt. eigenvalues --    0.37897   0.38912   0.38954   0.39389   0.40601
 Alpha virt. eigenvalues --    0.41604   0.41912   0.42009   0.42985   0.43833
 Alpha virt. eigenvalues --    0.44380   0.44865   0.45478   0.46415   0.47546
 Alpha virt. eigenvalues --    0.48451   0.48713   0.50236   0.51781   0.52470
 Alpha virt. eigenvalues --    0.53141   0.55780   0.57297   0.59192   0.60906
 Alpha virt. eigenvalues --    0.62317   0.64647   0.64968   0.68659   0.69458
 Alpha virt. eigenvalues --    0.70429   0.71339   0.71888   0.72114   0.73023
 Alpha virt. eigenvalues --    0.74728   0.75232   0.75873   0.76035   0.76080
 Alpha virt. eigenvalues --    0.76879   0.77647   0.78017   0.78206   0.78928
 Alpha virt. eigenvalues --    0.79369   0.80131   0.81728   0.83223   0.83625
 Alpha virt. eigenvalues --    0.83819   0.84487   0.84720   0.85369   0.86462
 Alpha virt. eigenvalues --    0.87507   0.89165   0.89613   0.89959   0.90588
 Alpha virt. eigenvalues --    0.91785   0.92030   0.92343   0.92842   0.94555
 Alpha virt. eigenvalues --    0.95104   0.96022   0.96513   0.97515   0.98312
 Alpha virt. eigenvalues --    0.98750   0.99547   0.99723   1.00187   1.00622
 Alpha virt. eigenvalues --    1.01689   1.02025   1.02255   1.03521   1.03677
 Alpha virt. eigenvalues --    1.04777   1.05846   1.06090   1.06517   1.07015
 Alpha virt. eigenvalues --    1.07722   1.08204   1.09069   1.09989   1.11945
 Alpha virt. eigenvalues --    1.12086   1.12827   1.13183   1.13892   1.14168
 Alpha virt. eigenvalues --    1.14257   1.14419   1.14701   1.15130   1.15559
 Alpha virt. eigenvalues --    1.15947   1.16146   1.16565   1.17459   1.17866
 Alpha virt. eigenvalues --    1.18199   1.18470   1.18600   1.18984   1.19185
 Alpha virt. eigenvalues --    1.19760   1.20479   1.20820   1.21156   1.21523
 Alpha virt. eigenvalues --    1.21893   1.22141   1.22492   1.22807   1.23064
 Alpha virt. eigenvalues --    1.23649   1.23867   1.24768   1.25542   1.25566
 Alpha virt. eigenvalues --    1.26838   1.27442   1.28032   1.28448   1.29337
 Alpha virt. eigenvalues --    1.29983   1.30400   1.30489   1.30907   1.32668
 Alpha virt. eigenvalues --    1.33947   1.35179   1.35333   1.37576   1.38244
 Alpha virt. eigenvalues --    1.38563   1.41326   1.41567   1.41816   1.43676
 Alpha virt. eigenvalues --    1.44937   1.45658   1.47065   1.48648   1.49256
 Alpha virt. eigenvalues --    1.52105   1.53883   1.55046   1.56735   1.57521
 Alpha virt. eigenvalues --    1.57722   1.59785   1.60410   1.61213   1.62247
 Alpha virt. eigenvalues --    1.63864   1.66067   1.68732   1.69362   1.71377
 Alpha virt. eigenvalues --    1.72302   1.72575   1.73314   1.74764   1.75463
 Alpha virt. eigenvalues --    1.77969   1.78021   1.79527   1.80080   1.80934
 Alpha virt. eigenvalues --    1.81883   1.85363   1.87659   1.88562   1.89148
 Alpha virt. eigenvalues --    1.90668   1.91281   1.92799   1.95102   1.96685
 Alpha virt. eigenvalues --    1.97999   1.98270   2.02420   2.03094   2.03960
 Alpha virt. eigenvalues --    2.04330   2.05965   2.07220   2.07352   2.08977
 Alpha virt. eigenvalues --    2.09746   2.11108   2.11709   2.11980   2.12426
 Alpha virt. eigenvalues --    2.13796   2.14565   2.15720   2.16661   2.16829
 Alpha virt. eigenvalues --    2.17153   2.18306   2.18767   2.20128   2.20818
 Alpha virt. eigenvalues --    2.21188   2.21554   2.23340   2.24414   2.24627
 Alpha virt. eigenvalues --    2.25053   2.25648   2.26294   2.27010   2.27780
 Alpha virt. eigenvalues --    2.28640   2.30016   2.30640   2.31123   2.32322
 Alpha virt. eigenvalues --    2.33577   2.34521   2.34837   2.36258   2.36423
 Alpha virt. eigenvalues --    2.36773   2.37767   2.38515   2.38864   2.39003
 Alpha virt. eigenvalues --    2.39865   2.41390   2.42154   2.43269   2.45206
 Alpha virt. eigenvalues --    2.45724   2.47269   2.48296   2.50112   2.50767
 Alpha virt. eigenvalues --    2.51967   2.52504   2.54276   2.55377   2.55678
 Alpha virt. eigenvalues --    2.56691   2.57664   2.58969   2.59346   2.60484
 Alpha virt. eigenvalues --    2.61919   2.62672   2.63691   2.64525   2.65297
 Alpha virt. eigenvalues --    2.66998   2.68327   2.68772   2.69783   2.71810
 Alpha virt. eigenvalues --    2.73447   2.73966   2.75163   2.75427   2.75782
 Alpha virt. eigenvalues --    2.77260   2.77861   2.78802   2.79021   2.80332
 Alpha virt. eigenvalues --    2.82020   2.82850   2.84522   2.85821   2.87728
 Alpha virt. eigenvalues --    2.88639   2.90576   2.91122   2.93782   2.95274
 Alpha virt. eigenvalues --    2.96591   2.97492   2.98282   3.01217   3.02669
 Alpha virt. eigenvalues --    3.02992   3.04656   3.05081   3.07150   3.08559
 Alpha virt. eigenvalues --    3.09259   3.10469   3.12613   3.14987   3.15338
 Alpha virt. eigenvalues --    3.17640   3.18237   3.23045   3.26626   3.30074
 Alpha virt. eigenvalues --    3.33876   3.38754   3.40064   3.40959   3.41523
 Alpha virt. eigenvalues --    3.42175   3.47108   3.55176   3.57084   3.57992
 Alpha virt. eigenvalues --    3.58758   4.37899   4.42855   4.48648   4.51415
 Alpha virt. eigenvalues --    4.51958   4.55540   4.59046   4.60046   4.62183
 Alpha virt. eigenvalues --    4.64616   4.66582   4.67880   4.69580   4.69941
 Alpha virt. eigenvalues --    4.71905   4.77547   4.79651   4.82868   4.86115
 Alpha virt. eigenvalues --    4.89214   4.92058   4.93546   4.95674   5.01462
 Alpha virt. eigenvalues --    5.04836   5.06370   5.22968   5.29413
          Condensed to atoms (all electrons):
 Mulliken atomic charges:
              1
     1  C   -0.284293
     2  N   -0.935524
     3  C    0.784409
     4  O   -0.558666
     5  C    0.134424
     6  C   -0.484944
     7  C   -0.406431
     8  C   -0.295632
     9  C   -0.557035
    10  C   -0.177114
    11  C   -0.181208
    12  C   -0.357121
    13  C   -0.312094
    14  C   -0.330118
    15  C    0.091291
    16  C   -0.509907
    17  N   -0.787402
    18  C    0.767194
    19  C   -0.595892
    20  O   -0.612902
    21  C    0.819787
    22  O   -0.639374
    23  N   -0.806663
    24  C   -0.275856
    25  N   -0.821385
    26  C    0.736269
    27  C   -0.587336
    28  O   -0.547006
    29  H    0.180734
    30  H    0.214087
    31  H    0.169244
    32  H    0.489329
    33  H    0.167491
    34  H    0.152860
    35  H    0.234157
    36  H    0.175430
    37  H    0.189332
    38  H    0.180238
    39  H    0.183067
    40  H    0.318269
    41  H    0.193315
    42  H    0.197567
    43  H    0.179755
    44  H    0.181720
    45  H    0.165476
    46  H    0.155273
    47  H    0.198433
    48  H    0.175363
    49  H    0.183446
    50  H    0.184697
    51  H    0.148680
    52  H    0.228230
    53  H    0.389353
    54  H    0.212510
    55  H    0.209409
    56  H    0.176673
    57  H    0.396371
    58  H    0.166309
    59  H    0.197257
    60  H    0.186900
    61  H    0.374577
    62  H    0.216066
    63  H    0.170344
    64  H    0.188563
 Sum of Mulliken atomic charges =   0.00000
 Mulliken charges with hydrogens summed into heavy atoms:
              1
     1  C    0.279772
     2  N   -0.446195
     3  C    0.784409
     4  O   -0.558666
     5  C    0.134424
     6  C    0.069564
     7  C   -0.041669
     8  C    0.067673
     9  C   -0.045451
    10  C    0.020453
    11  C   -0.001454
    12  C   -0.009924
    13  C    0.041613
    14  C    0.028691
    15  C    0.091291
    16  C    0.051700
    17  N   -0.398049
    18  C    0.767194
    19  C    0.002700
    20  O   -0.612902
    21  C    0.819787
    22  O   -0.639374
    23  N   -0.410292
    24  C    0.274611
    25  N   -0.446808
    26  C    0.736269
    27  C   -0.012363
    28  O   -0.547006
 Sum of Mulliken charges with hydrogens summed into heavy atoms =   0.00000
 Electronic spatial extent (au):  <R**2>=          21734.1652
 Charge=              0.0000 electrons
 Dipole moment (field-independent basis, Debye):
    X=              1.5273    Y=             -6.2485    Z=              3.0911  Tot=              7.1366
 Quadrupole moment (field-independent basis, Debye-Ang):
   XX=           -225.8046   YY=           -162.1245   ZZ=           -168.0142
   XY=             26.0086   XZ=             -2.6152   YZ=              6.3095
 Traceless Quadrupole moment (field-independent basis, Debye-Ang):
   XX=            -40.4902   YY=             23.1900   ZZ=             17.3002
   XY=             26.0086   XZ=             -2.6152   YZ=              6.3095
 Octapole moment (field-independent basis, Debye-Ang**2):
  XXX=            -50.2737  YYY=             32.6232  ZZZ=              6.8132  XYY=             90.4118
  XXY=           -316.3977  XXZ=             74.7614  XZZ=            -15.1367  YZZ=              5.3081
  YYZ=              1.4328  XYZ=             31.7687
 Hexadecapole moment (field-independent basis, Debye-Ang**3):
 XXXX=         -28160.7338 YYYY=          -2188.8946 ZZZZ=          -1180.1606 XXXY=            887.0528
 XXXZ=           -724.8900 YYYX=            177.9353 YYYZ=              5.1561 ZZZX=             -0.4399
 ZZZY=              7.1967 XXYY=          -4437.9070 XXZZ=          -4175.6758 YYZZ=           -567.4788
 XXYZ=            175.5121 YYXZ=            -34.7498 ZZXY=            -13.6485
 N-N= 2.713399805417D+03 E-N=-8.458778197667D+03  KE= 1.294640598656D+03
 1\1\GINC-MOSURA\SP\RHF\6-31G(d)\C20H36N4O4\MARIE\05-Dec-2019\0\\#SP HF
 /6-31G* Geom=(ModRedundant)\\paramfit run\\0,1\C,0,0.,0.,0.\N,0,1.4481
 87,0.,0.\C,0,2.1232,0.47592,1.072365\O,0,1.590179,0.696732,2.124447\C,
 0,3.650505,0.594143,0.921539\C,0,4.335878,-0.455856,1.802225\C,0,4.053
 992,0.435976,-0.569696\C,0,3.718583,-0.877516,-1.298994\C,0,2.294681,-
 1.03603,-1.868216\C,0,1.894641,0.05307,-2.835742\C,0,1.921618,0.006797
 ,-4.157819\C,0,2.360421,-1.146936,-5.027363\C,0,1.202317,-1.948318,-5.
 648769\C,0,0.317352,-1.095019,-6.567264\C,0,-0.778176,-1.814058,-7.396
 388\C,0,-1.553597,-0.738213,-8.174033\N,0,-0.129927,-2.719001,-8.33574
 \C,0,-0.850877,-3.59192,-9.098171\C,0,-0.045058,-4.706212,-9.725717\O,
 0,-2.034706,-3.488829,-9.262675\C,0,-1.648782,-2.655566,-6.43585\O,0,-
 1.293149,-3.753154,-6.100059\N,0,-2.751567,-2.069955,-5.92116\C,0,-3.6
 38642,-2.818974,-5.054979\N,0,4.09877,1.945741,1.28715\C,0,3.910211,2.
 498084,2.519641\C,0,4.742049,3.73111,2.805668\O,0,3.134987,2.050999,3.
 316688\H,0,-0.403259,1.006147,0.\H,0,-0.36496,-0.516002,0.875939\H,0,-
 0.345658,-0.522086,-0.883346\H,0,1.904244,0.070913,-0.879357\H,0,3.998
 608,-1.451554,1.557752\H,0,5.411003,-0.400655,1.659755\H,0,4.10928,-0.
 27945,2.843599\H,0,5.135681,0.548154,-0.593927\H,0,3.648781,1.274898,-
 1.126738\H,0,4.412366,-0.952705,-2.131238\H,0,3.929221,-1.724249,-0.65
 3975\H,0,1.574476,-1.074583,-1.061258\H,0,2.250542,-2.003938,-2.355083
 \H,0,1.545186,0.965527,-2.38031\H,0,1.591473,0.885934,-4.688745\H,0,2.
 979968,-1.830865,-4.460028\H,0,2.991029,-0.758041,-5.825917\H,0,1.6334
 19,-2.783215,-6.19418\H,0,0.605542,-2.385052,-4.858862\H,0,0.944051,-0
 .561798,-7.278923\H,0,-0.180109,-0.342301,-5.967016\H,0,-0.883181,-0.2
 76403,-8.889474\H,0,-1.911378,0.043831,-7.512383\H,0,-2.386127,-1.1605
 13,-8.716524\H,0,0.76428,-3.052105,-8.056193\H,0,-0.587027,-5.101056,-
 10.571548\H,0,0.080806,-5.4973,-8.992598\H,0,0.937235,-4.37184,-10.041
 437\H,0,-3.133565,-1.284553,-6.392891\H,0,-4.384455,-2.143518,-4.65692
 7\H,0,-3.076224,-3.244548,-4.236934\H,0,-4.134335,-3.62508,-5.586238\H
 ,0,4.857551,2.305848,0.752247\H,0,4.265043,4.299736,3.59059\H,0,4.8677
 67,4.354356,1.927426\H,0,5.725314,3.425677,3.148746\\Version=EM64L-G09
 RevA.02\State=1-A\HF=-1295.4677509\RMSD=5.063e-09\Dipole=1.7619805,0.9
 107627,-1.9873164\Quadrupole=24.5477177,8.2671111,-32.8148288,-3.31527
 48,-4.769981,-13.2866726\PG=C01 [X(C20H36N4O4)]\\@


 RESEARCH IS WHAT I AM DOING WHEN I DON'T KNOW WHAT I AM DOING.
     -- WERNER VON BRAUN
 Job cpu time:  0 days  0 hours  5 minutes 52.3 seconds.
 File lengths (MBytes):  RWF=    132 Int=      0 D2E=      0 Chk=     10 Scr=      1
 Normal termination of Gaussian 09 at Thu Dec  5 16:39:16 2019.
