 Entering Gaussian System, Link 0=g09
 Input=PSI_-30.gau
 Output=PSI_-30.log
 Initial command:
 /home/marie/Utilities//g09/l1.exe /tmp/g09/Gau-3324.inp -scrdir=/tmp/g09/
 Entering Link 1 = /home/marie/Utilities//g09/l1.exe PID=      3326.
  
 Copyright (c) 1988,1990,1992,1993,1995,1998,2003,2009, Gaussian, Inc.
                  All Rights Reserved.
  
 This is part of the Gaussian(R) 09 program.  It is based on
 the Gaussian(R) 03 system (copyright 2003, Gaussian, Inc.),
 the Gaussian(R) 98 system (copyright 1998, Gaussian, Inc.),
 the Gaussian(R) 94 system (copyright 1995, Gaussian, Inc.),
 the Gaussian 92(TM) system (copyright 1992, Gaussian, Inc.),
 the Gaussian 90(TM) system (copyright 1990, Gaussian, Inc.),
 the Gaussian 88(TM) system (copyright 1988, Gaussian, Inc.),
 the Gaussian 86(TM) system (copyright 1986, Carnegie Mellon
 University), and the Gaussian 82(TM) system (copyright 1983,
 Carnegie Mellon University). Gaussian is a federally registered
 trademark of Gaussian, Inc.
  
 This software contains proprietary and confidential information,
 including trade secrets, belonging to Gaussian, Inc.
  
 This software is provided under written license and may be
 used, copied, transmitted, or stored only in accord with that
 written license.
  
 The following legend is applicable only to US Government
 contracts under FAR:
  
                    RESTRICTED RIGHTS LEGEND
  
 Use, reproduction and disclosure by the US Government is
 subject to restrictions as set forth in subparagraphs (a)
 and (c) of the Commercial Computer Software - Restricted
 Rights clause in FAR 52.227-19.
  
 Gaussian, Inc.
 340 Quinnipiac St., Bldg. 40, Wallingford CT 06492
  
  
 ---------------------------------------------------------------
 Warning -- This program may not be used in any manner that
 competes with the business of Gaussian, Inc. or will provide
 assistance to any competitor of Gaussian, Inc.  The licensee
 of this program is prohibited from giving any competitor of
 Gaussian, Inc. access to this program.  By using this program,
 the user acknowledges that Gaussian, Inc. is engaged in the
 business of creating and licensing software in the field of
 computational chemistry and represents and warrants to the
 licensee that it is not a competitor of Gaussian, Inc. and that
 it will not use this program in any manner prohibited above.
 ---------------------------------------------------------------
  

 Cite this work as:
 Gaussian 09, Revision A.02,
 M. J. Frisch, G. W. Trucks, H. B. Schlegel, G. E. Scuseria, 
 M. A. Robb, J. R. Cheeseman, G. Scalmani, V. Barone, B. Mennucci, 
 G. A. Petersson, H. Nakatsuji, M. Caricato, X. Li, H. P. Hratchian, 
 A. F. Izmaylov, J. Bloino, G. Zheng, J. L. Sonnenberg, M. Hada, 
 M. Ehara, K. Toyota, R. Fukuda, J. Hasegawa, M. Ishida, T. Nakajima, 
 Y. Honda, O. Kitao, H. Nakai, T. Vreven, J. A. Montgomery, Jr., 
 J. E. Peralta, F. Ogliaro, M. Bearpark, J. J. Heyd, E. Brothers, 
 K. N. Kudin, V. N. Staroverov, R. Kobayashi, J. Normand, 
 K. Raghavachari, A. Rendell, J. C. Burant, S. S. Iyengar, J. Tomasi, 
 M. Cossi, N. Rega, J. M. Millam, M. Klene, J. E. Knox, J. B. Cross, 
 V. Bakken, C. Adamo, J. Jaramillo, R. Gomperts, R. E. Stratmann, 
 O. Yazyev, A. J. Austin, R. Cammi, C. Pomelli, J. W. Ochterski, 
 R. L. Martin, K. Morokuma, V. G. Zakrzewski, G. A. Voth, 
 P. Salvador, J. J. Dannenberg, S. Dapprich, A. D. Daniels, 
 O. Farkas, J. B. Foresman, J. V. Ortiz, J. Cioslowski, 
 and D. J. Fox, Gaussian, Inc., Wallingford CT, 2009.
 
 ******************************************
 Gaussian 09:  EM64L-G09RevA.02 11-Jun-2009
                 5-Dec-2019 
 ******************************************
 %chk=PSI_-30
 %NoSave
 ---------------------------------
 #SP HF/6-31G* Geom=(ModRedundant)
 ---------------------------------
 1/18=120,38=1/1;
 2/12=2,17=6,18=5,40=1/2;
 3/5=1,6=6,7=1,11=9,16=1,25=1,30=1/1,2,3;
 4//1;
 5/5=2,38=5/2;
 6/7=2,8=2,9=2,10=2,28=1/1;
 99/5=1,9=1/99;
 ------------
 paramfit run
 ------------
 Symbolic Z-matrix:
 Charge =  0 Multiplicity = 1
 C-CT--0.3208          0.        0.        0. 
 N-N--0.5622           1.44819   0.        0. 
 C-C-0.8053            2.1232    0.47592   1.07237 
 O-O--0.6151           1.59018   0.69673   2.12445 
 C-CX-0.0839           3.65051   0.59414   0.92154 
 C-CU--0.3230          4.15552  -0.48232  -0.04492 
 C-CU--0.0657          4.03061   2.01881   0.43426 
 C-CU--0.0109          3.49347   2.51273  -0.92116 
 C-CU-0.0816           2.0652    3.09192  -0.95633 
 C-CM--0.2354          1.84852   4.25119  -0.01218 
 C-CM--0.2653          1.87398   5.54211  -0.30138 
 C-CU-0.1214           2.12727   6.17651  -1.64791 
 C-CU--0.0354          0.85913   6.68334  -2.35819 
 C-CU--0.0984          0.12589   7.76855  -1.55845 
 C-CU-0.1300          -1.06637   8.49224  -2.23625 
 C-CU--0.3561         -1.65664   9.47501  -1.21195 
 N-N--0.7186          -0.56632   9.23269  -3.38657 
 C-C-0.8537           -1.41365   9.85076  -4.2601 
 C-CT--0.3868         -0.7929    10.24193  -5.58164 
 O-O--0.6323          -2.56511   10.07062  -4.00523 
 C-C-0.7903           -2.06454   7.42664  -2.74309 
 O-O--0.6136          -1.89007   6.88857  -3.80326 
 N-N--0.5650          -3.06223   7.06203  -1.90903 
 C-CT--0.3231         -4.06147   6.10627  -2.34063 
 N-N--0.7191           4.30685   0.46088   2.23031 
 C-C-0.8539            4.20299  -0.64618   3.0198 
 C-CT--0.3903          5.21946  -0.73522   4.13917 
 O-O--0.6290           3.36265  -1.4838    2.85136 
 H-H1-0.1459          -0.40326   1.00615   0. 
 H-H1-0.1459          -0.36496  -0.516     0.87594 
 H-H1-0.1459          -0.34566  -0.52209  -0.88335 
 H-H-0.3572            1.90424   0.07091  -0.87936 
 H-HC-0.0997           3.66493  -0.40836  -1.00345 
 H-HC-0.0997           5.22634  -0.3684   -0.18489 
 H-HC-0.0997           3.95505  -1.46728   0.3508 
 H-HC-0.0347           5.11645   2.0264    0.37005 
 H-HC-0.0347           3.767     2.72993   1.21084 
 H-HC-0.0243           4.17029   3.29445  -1.2535 
 H-HC-0.0243           3.56335   1.72022  -1.65901 
 H-HC-0.0171           1.34428   2.31564  -0.7349 
 H-HC-0.0171           1.86957   3.39937  -1.97762 
 H-HA-0.1313           1.6469    3.97794   1.01095 
 H-HA-0.1359           1.69076   6.23221   0.50729 
 H-HC-0.0092           2.62715   5.47575  -2.30557 
 H-HC-0.0092           2.81557   7.01006  -1.51368 
 H-HC-0.0318           1.15413   7.05617  -3.33509 
 H-HC-0.0318           0.19663   5.84861  -2.54571 
 H-HC-0.0435           0.83294   8.54255  -1.2677 
 H-HC-0.0435          -0.24799   7.32934  -0.64102 
 H-HC-0.1066          -0.9178    10.23852  -0.99804 
 H-HC-0.1066          -1.88824   8.97597  -0.27669 
 H-HC-0.1066          -2.5433    9.96099  -1.59062 
 H-H-0.3529            0.262     8.86834  -3.79871 
 H-HC-0.1047          -1.38692   11.02137  -6.03406 
 H-HC-0.1047          -0.79825   9.37556  -6.23624 
 H-HC-0.1047           0.23162   10.57916  -5.46753 
 H-H-0.3615           -3.31187   7.67893  -1.17254 
 H-H1-0.1469          -4.69188   5.86043  -1.4962 
 H-H1-0.1469          -3.57796   5.20701  -2.69302 
 H-H1-0.1469          -4.67686   6.5014   -3.14245 
 H-H-0.3570            5.11585   1.02573   2.36447 
 H-HC-0.1060           4.83555  -1.38958   4.9082 
 H-HC-0.1060           5.44709   0.23547   4.56522 
 H-HC-0.1060           6.13981  -1.16007   3.75155 
 
 The following ModRedundant input section has been read:
 D    *    3    5    * F                                                       
 Stoichiometry    C20H36N4O4
 Framework group  C1[X(C20H36N4O4)]
 Deg. of freedom   186
 Full point group                 C1      NOp   1
 Largest Abelian subgroup         C1      NOp   1
 Largest concise Abelian subgroup C1      NOp   1
                         Standard orientation:                         
 ---------------------------------------------------------------------
 Center     Atomic      Atomic             Coordinates (Angstroms)
 Number     Number       Type             X           Y           Z
 ---------------------------------------------------------------------
      1          6    20001001       -3.284195    2.961860   -0.943323
      2          7    20001014       -3.938763    1.689835   -1.168577
      3          6    20001002       -4.350550    0.946654   -0.114906
      4          8    20001024       -4.404834    1.383782    1.001212
      5          6    90000001       -4.882522   -0.461289   -0.437532
      6          6    90000002       -5.515956   -0.463215   -1.832738
      7          6    90000002       -3.735447   -1.502852   -0.332812
      8          6    90000002       -2.509711   -1.359137   -1.252893
      9          6    90000002       -1.400158   -0.380956   -0.818507
     10          6    20001004       -0.823047   -0.672996    0.546752
     11          6    20001004        0.293009   -1.325998    0.827405
     12          6    90000002        1.266299   -1.942375   -0.148577
     13          6    90000002        2.546586   -1.117696   -0.372929
     14          6    90000002        3.363821   -0.931073    0.912454
     15          6    90000002        4.763319   -0.273335    0.796557
     16          6    90000002        5.337118   -0.148183    2.217310
     17          7    20001014        5.620232   -1.142924    0.002172
     18          6    20001002        6.868781   -0.751861   -0.386739
     19          6    20001001        7.476596   -1.574239   -1.499870
     20          8    20001024        7.446511    0.173331    0.112652
     21          6    20001002        4.614061    1.071983    0.050523
     22          8    20001024        4.588374    1.099257   -1.150529
     23          7    20001014        4.413173    2.178898    0.797759
     24          6    20001001        4.316107    3.478451    0.165349
     25          7    20001014       -5.862250   -0.883507    0.574050
     26          6    20001002       -7.022201   -0.213709    0.830083
     27          6    20001001       -8.046535   -0.986373    1.634976
     28          8    20001024       -7.216223    0.908763    0.457857
     29          1    20001035       -2.322968    2.840267   -0.457312
     30          1    20001035       -3.906836    3.587520   -0.320756
     31          1    20001035       -3.140766    3.450762   -1.898706
     32          1    20001029       -3.700370    1.194399   -1.995618
     33          1    20001034       -4.812250   -0.134123   -2.582023
     34          1    20001034       -5.849751   -1.467413   -2.076471
     35          1    20001034       -6.363240    0.206236   -1.862257
     36          1    20001034       -4.191911   -2.464673   -0.555893
     37          1    20001034       -3.409833   -1.553432    0.701450
     38          1    20001034       -2.063168   -2.346469   -1.326329
     39          1    20001034       -2.827929   -1.097197   -2.256636
     40          1    20001034       -1.773409    0.634808   -0.835045
     41          1    20001034       -0.621188   -0.425727   -1.571524
     42          1    20001033       -1.396798   -0.295346    1.377598
     43          1    20001033        0.551799   -1.435017    1.868992
     44          1    20001034        0.789227   -2.095923   -1.108937
     45          1    20001034        1.541057   -2.931772    0.215009
     46          1    20001034        3.134744   -1.621249   -1.135082
     47          1    20001034        2.282867   -0.154133   -0.788656
     48          1    20001034        3.514651   -1.897861    1.387961
     49          1    20001034        2.786284   -0.331003    1.605791
     50          1    20001034        5.499502   -1.143286    2.614780
     51          1    20001034        4.641050    0.356453    2.879288
     52          1    20001034        6.281912    0.374397    2.221233
     53          1    20001029        5.146377   -1.726930   -0.648297
     54          1    20001034        8.548983   -1.452620   -1.483919
     55          1    20001034        7.098312   -1.205488   -2.448580
     56          1    20001034        7.224048   -2.625648   -1.415367
     57          1    20001029        4.677285    2.157801    1.754373
     58          1    20001035        4.036568    4.207324    0.914698
     59          1    20001035        3.557494    3.454445   -0.603127
     60          1    20001035        5.255440    3.776219   -0.289338
     61          1    20001029       -5.850043   -1.851862    0.805756
     62          1    20001034       -8.720357   -0.286094    2.106725
     63          1    20001034       -7.586692   -1.615627    2.388722
     64          1    20001034       -8.619702   -1.620887    0.966640
 ---------------------------------------------------------------------
 Rotational constants (GHZ):      0.4098224      0.0492948      0.0473723
 Standard basis: 6-31G(d) (6D, 7F)
 There are   492 symmetry adapted basis functions of A   symmetry.
 Integral buffers will be    131072 words long.
 Raffenetti 1 integral format.
 Two-electron integral symmetry is turned on.
   492 basis functions,   928 primitive gaussians,   492 cartesian basis functions
   108 alpha electrons      108 beta electrons
       nuclear repulsion energy      2683.8421689754 Hartrees.
 NAtoms=   64 NActive=   64 NUniq=   64 SFac= 7.50D-01 NAtFMM=   80 NAOKFM=F Big=T
 One-electron integrals computed using PRISM.
 NBasis=   492 RedAO= T  NBF=   492
 NBsUse=   492 1.00D-06 NBFU=   492
 Harris functional with IExCor=  205 diagonalized for initial guess.
 ExpMin= 1.61D-01 ExpMax= 5.48D+03 ExpMxC= 8.25D+02 IAcc=1 IRadAn=         1 AccDes= 0.00D+00
 HarFok:  IExCor=  205 AccDes= 0.00D+00 IRadAn=         1 IDoV= 1
 ScaDFX=  1.000000  1.000000  1.000000  1.000000
 FoFCou: FMM=F IPFlag=           0 FMFlag=      100000 FMFlg1=           1
         NFxFlg=           0 DoJE=T BraDBF=F KetDBF=T FulRan=T
         Omega=  0.000000  0.000000  1.000000  0.000000  0.000000 ICntrl=     500 IOpCl=  0
         NMat0=    1 NMatS0=    1 NMatT0=    0 NMatD0=    1 NMtDS0=    0 NMtDT0=    0
         I1Cent=           4 NGrid=           0.
 Petite list used in FoFCou.
 Initial guess orbital symmetries:
       Occupied  (A) (A) (A) (A) (A) (A) (A) (A) (A) (A) (A) (A)
                 (A) (A) (A) (A) (A) (A) (A) (A) (A) (A) (A) (A)
                 (A) (A) (A) (A) (A) (A) (A) (A) (A) (A) (A) (A)
                 (A) (A) (A) (A) (A) (A) (A) (A) (A) (A) (A) (A)
                 (A) (A) (A) (A) (A) (A) (A) (A) (A) (A) (A) (A)
                 (A) (A) (A) (A) (A) (A) (A) (A) (A) (A) (A) (A)
                 (A) (A) (A) (A) (A) (A) (A) (A) (A) (A) (A) (A)
                 (A) (A) (A) (A) (A) (A) (A) (A) (A) (A) (A) (A)
                 (A) (A) (A) (A) (A) (A) (A) (A) (A) (A) (A) (A)
       Virtual   (A) (A) (A) (A) (A) (A) (A) (A) (A) (A) (A) (A)
                 (A) (A) (A) (A) (A) (A) (A) (A) (A) (A) (A) (A)
                 (A) (A) (A) (A) (A) (A) (A) (A) (A) (A) (A) (A)
                 (A) (A) (A) (A) (A) (A) (A) (A) (A) (A) (A) (A)
                 (A) (A) (A) (A) (A) (A) (A) (A) (A) (A) (A) (A)
                 (A) (A) (A) (A) (A) (A) (A) (A) (A) (A) (A) (A)
                 (A) (A) (A) (A) (A) (A) (A) (A) (A) (A) (A) (A)
                 (A) (A) (A) (A) (A) (A) (A) (A) (A) (A) (A) (A)
                 (A) (A) (A) (A) (A) (A) (A) (A) (A) (A) (A) (A)
                 (A) (A) (A) (A) (A) (A) (A) (A) (A) (A) (A) (A)
                 (A) (A) (A) (A) (A) (A) (A) (A) (A) (A) (A) (A)
                 (A) (A) (A) (A) (A) (A) (A) (A) (A) (A) (A) (A)
                 (A) (A) (A) (A) (A) (A) (A) (A) (A) (A) (A) (A)
                 (A) (A) (A) (A) (A) (A) (A) (A) (A) (A) (A) (A)
                 (A) (A) (A) (A) (A) (A) (A) (A) (A) (A) (A) (A)
                 (A) (A) (A) (A) (A) (A) (A) (A) (A) (A) (A) (A)
                 (A) (A) (A) (A) (A) (A) (A) (A) (A) (A) (A) (A)
                 (A) (A) (A) (A) (A) (A) (A) (A) (A) (A) (A) (A)
                 (A) (A) (A) (A) (A) (A) (A) (A) (A) (A) (A) (A)
                 (A) (A) (A) (A) (A) (A) (A) (A) (A) (A) (A) (A)
                 (A) (A) (A) (A) (A) (A) (A) (A) (A) (A) (A) (A)
                 (A) (A) (A) (A) (A) (A) (A) (A) (A) (A) (A) (A)
                 (A) (A) (A) (A) (A) (A) (A) (A) (A) (A) (A) (A)
                 (A) (A) (A) (A) (A) (A) (A) (A) (A) (A) (A) (A)
                 (A) (A) (A) (A) (A) (A) (A) (A) (A) (A) (A) (A)
                 (A) (A) (A) (A) (A) (A) (A) (A) (A) (A) (A) (A)
                 (A) (A) (A) (A) (A) (A) (A) (A) (A) (A) (A) (A)
                 (A) (A) (A) (A) (A) (A) (A) (A) (A) (A) (A) (A)
                 (A) (A) (A) (A) (A) (A) (A) (A) (A) (A) (A) (A)
                 (A) (A) (A) (A) (A) (A) (A) (A) (A) (A) (A) (A)
                 (A) (A) (A) (A) (A) (A) (A) (A) (A) (A) (A) (A)
                 (A) (A) (A) (A) (A) (A) (A) (A) (A) (A) (A) (A)
 The electronic state of the initial guess is 1-A.
 Requested convergence on RMS density matrix=1.00D-08 within 128 cycles.
 Requested convergence on MAX density matrix=1.00D-06.
 Requested convergence on             energy=1.00D-06.
 No special actions if energy rises.
 Integral accuracy reduced to 1.0D-05 until final iterations.
 Initial convergence to 1.0D-05 achieved.  Increase integral accuracy.
 SCF Done:  E(RHF) =  -1295.60447319     A.U. after   14 cycles
             Convg  =    0.4577D-08             -V/T =  2.0012

 **********************************************************************

            Population analysis using the SCF density.

 **********************************************************************

 Orbital symmetries:
       Occupied  (A) (A) (A) (A) (A) (A) (A) (A) (A) (A) (A) (A)
                 (A) (A) (A) (A) (A) (A) (A) (A) (A) (A) (A) (A)
                 (A) (A) (A) (A) (A) (A) (A) (A) (A) (A) (A) (A)
                 (A) (A) (A) (A) (A) (A) (A) (A) (A) (A) (A) (A)
                 (A) (A) (A) (A) (A) (A) (A) (A) (A) (A) (A) (A)
                 (A) (A) (A) (A) (A) (A) (A) (A) (A) (A) (A) (A)
                 (A) (A) (A) (A) (A) (A) (A) (A) (A) (A) (A) (A)
                 (A) (A) (A) (A) (A) (A) (A) (A) (A) (A) (A) (A)
                 (A) (A) (A) (A) (A) (A) (A) (A) (A) (A) (A) (A)
       Virtual   (A) (A) (A) (A) (A) (A) (A) (A) (A) (A) (A) (A)
                 (A) (A) (A) (A) (A) (A) (A) (A) (A) (A) (A) (A)
                 (A) (A) (A) (A) (A) (A) (A) (A) (A) (A) (A) (A)
                 (A) (A) (A) (A) (A) (A) (A) (A) (A) (A) (A) (A)
                 (A) (A) (A) (A) (A) (A) (A) (A) (A) (A) (A) (A)
                 (A) (A) (A) (A) (A) (A) (A) (A) (A) (A) (A) (A)
                 (A) (A) (A) (A) (A) (A) (A) (A) (A) (A) (A) (A)
                 (A) (A) (A) (A) (A) (A) (A) (A) (A) (A) (A) (A)
                 (A) (A) (A) (A) (A) (A) (A) (A) (A) (A) (A) (A)
                 (A) (A) (A) (A) (A) (A) (A) (A) (A) (A) (A) (A)
                 (A) (A) (A) (A) (A) (A) (A) (A) (A) (A) (A) (A)
                 (A) (A) (A) (A) (A) (A) (A) (A) (A) (A) (A) (A)
                 (A) (A) (A) (A) (A) (A) (A) (A) (A) (A) (A) (A)
                 (A) (A) (A) (A) (A) (A) (A) (A) (A) (A) (A) (A)
                 (A) (A) (A) (A) (A) (A) (A) (A) (A) (A) (A) (A)
                 (A) (A) (A) (A) (A) (A) (A) (A) (A) (A) (A) (A)
                 (A) (A) (A) (A) (A) (A) (A) (A) (A) (A) (A) (A)
                 (A) (A) (A) (A) (A) (A) (A) (A) (A) (A) (A) (A)
                 (A) (A) (A) (A) (A) (A) (A) (A) (A) (A) (A) (A)
                 (A) (A) (A) (A) (A) (A) (A) (A) (A) (A) (A) (A)
                 (A) (A) (A) (A) (A) (A) (A) (A) (A) (A) (A) (A)
                 (A) (A) (A) (A) (A) (A) (A) (A) (A) (A) (A) (A)
                 (A) (A) (A) (A) (A) (A) (A) (A) (A) (A) (A) (A)
                 (A) (A) (A) (A) (A) (A) (A) (A) (A) (A) (A) (A)
                 (A) (A) (A) (A) (A) (A) (A) (A) (A) (A) (A) (A)
                 (A) (A) (A) (A) (A) (A) (A) (A) (A) (A) (A) (A)
                 (A) (A) (A) (A) (A) (A) (A) (A) (A) (A) (A) (A)
                 (A) (A) (A) (A) (A) (A) (A) (A) (A) (A) (A) (A)
                 (A) (A) (A) (A) (A) (A) (A) (A) (A) (A) (A) (A)
                 (A) (A) (A) (A) (A) (A) (A) (A) (A) (A) (A) (A)
                 (A) (A) (A) (A) (A) (A) (A) (A) (A) (A) (A) (A)
                 (A) (A) (A) (A) (A) (A) (A) (A) (A) (A) (A) (A)
 The electronic state is 1-A.
 Alpha  occ. eigenvalues --  -20.52265 -20.51888 -20.51481 -20.51283 -15.58157
 Alpha  occ. eigenvalues --  -15.57947 -15.57937 -15.57764 -11.34476 -11.34037
 Alpha  occ. eigenvalues --  -11.33960 -11.33527 -11.29039 -11.28821 -11.25257
 Alpha  occ. eigenvalues --  -11.25209 -11.24188 -11.23929 -11.23705 -11.23094
 Alpha  occ. eigenvalues --  -11.23074 -11.22835 -11.22812 -11.22809 -11.22733
 Alpha  occ. eigenvalues --  -11.22631 -11.22277 -11.21976  -1.39622  -1.38951
 Alpha  occ. eigenvalues --   -1.38350  -1.37610  -1.23794  -1.23564  -1.22874
 Alpha  occ. eigenvalues --   -1.22873  -1.11416  -1.09621  -1.07489  -1.04701
 Alpha  occ. eigenvalues --   -1.01253  -0.99132  -0.98960  -0.96007  -0.95013
 Alpha  occ. eigenvalues --   -0.94677  -0.92863  -0.88076  -0.86103  -0.83149
 Alpha  occ. eigenvalues --   -0.81439  -0.79732  -0.78381  -0.77269  -0.77126
 Alpha  occ. eigenvalues --   -0.72420  -0.71577  -0.70656  -0.68422  -0.67917
 Alpha  occ. eigenvalues --   -0.67244  -0.65334  -0.64735  -0.64037  -0.63245
 Alpha  occ. eigenvalues --   -0.62548  -0.62314  -0.61994  -0.61698  -0.61383
 Alpha  occ. eigenvalues --   -0.61217  -0.60101  -0.59410  -0.58928  -0.58395
 Alpha  occ. eigenvalues --   -0.57800  -0.57275  -0.56807  -0.56657  -0.56353
 Alpha  occ. eigenvalues --   -0.55594  -0.55232  -0.55121  -0.54980  -0.54573
 Alpha  occ. eigenvalues --   -0.53833  -0.53349  -0.52935  -0.52417  -0.51871
 Alpha  occ. eigenvalues --   -0.50922  -0.50105  -0.49936  -0.49675  -0.48982
 Alpha  occ. eigenvalues --   -0.48844  -0.47242  -0.46767  -0.45191  -0.41776
 Alpha  occ. eigenvalues --   -0.41287  -0.41002  -0.40456  -0.39092  -0.38689
 Alpha  occ. eigenvalues --   -0.38553  -0.38049  -0.35140
 Alpha virt. eigenvalues --    0.16576   0.19404   0.19872   0.20318   0.21011
 Alpha virt. eigenvalues --    0.21338   0.21688   0.22166   0.22924   0.24011
 Alpha virt. eigenvalues --    0.24159   0.25155   0.25917   0.26746   0.27258
 Alpha virt. eigenvalues --    0.27481   0.28218   0.28677   0.29300   0.29613
 Alpha virt. eigenvalues --    0.30066   0.30831   0.30970   0.31070   0.31701
 Alpha virt. eigenvalues --    0.32027   0.32243   0.32449   0.33300   0.33422
 Alpha virt. eigenvalues --    0.33790   0.33855   0.34294   0.34670   0.35143
 Alpha virt. eigenvalues --    0.35409   0.35789   0.36272   0.36772   0.37414
 Alpha virt. eigenvalues --    0.37876   0.38907   0.39369   0.39462   0.39789
 Alpha virt. eigenvalues --    0.41032   0.41690   0.42368   0.42670   0.43962
 Alpha virt. eigenvalues --    0.44583   0.44785   0.45123   0.46021   0.46545
 Alpha virt. eigenvalues --    0.47225   0.48883   0.49904   0.51823   0.51952
 Alpha virt. eigenvalues --    0.53269   0.57469   0.58530   0.59224   0.60056
 Alpha virt. eigenvalues --    0.61835   0.63610   0.64658   0.68253   0.69732
 Alpha virt. eigenvalues --    0.70794   0.71166   0.71353   0.71967   0.72507
 Alpha virt. eigenvalues --    0.73593   0.75006   0.75683   0.76161   0.76398
 Alpha virt. eigenvalues --    0.77065   0.77320   0.78133   0.78624   0.78660
 Alpha virt. eigenvalues --    0.79409   0.79948   0.80717   0.82165   0.83508
 Alpha virt. eigenvalues --    0.83718   0.83819   0.84746   0.84792   0.85422
 Alpha virt. eigenvalues --    0.87398   0.87917   0.88211   0.89604   0.90352
 Alpha virt. eigenvalues --    0.91182   0.91728   0.92291   0.92613   0.93729
 Alpha virt. eigenvalues --    0.95237   0.95418   0.96038   0.96988   0.98085
 Alpha virt. eigenvalues --    0.98674   0.99191   0.99649   1.00167   1.00443
 Alpha virt. eigenvalues --    1.00685   1.01558   1.01919   1.03020   1.03607
 Alpha virt. eigenvalues --    1.03877   1.04973   1.06143   1.06382   1.07181
 Alpha virt. eigenvalues --    1.07320   1.08044   1.08918   1.10133   1.11676
 Alpha virt. eigenvalues --    1.12510   1.12835   1.12986   1.13720   1.13941
 Alpha virt. eigenvalues --    1.14178   1.14357   1.14783   1.15022   1.15615
 Alpha virt. eigenvalues --    1.15749   1.16212   1.17135   1.17746   1.17927
 Alpha virt. eigenvalues --    1.18299   1.18742   1.18889   1.19027   1.19498
 Alpha virt. eigenvalues --    1.19750   1.20192   1.20642   1.20855   1.21455
 Alpha virt. eigenvalues --    1.21616   1.22086   1.22249   1.22525   1.22773
 Alpha virt. eigenvalues --    1.23498   1.23585   1.24274   1.24758   1.25605
 Alpha virt. eigenvalues --    1.26282   1.27142   1.27408   1.28559   1.29031
 Alpha virt. eigenvalues --    1.29446   1.30596   1.30664   1.31112   1.31407
 Alpha virt. eigenvalues --    1.32647   1.34504   1.35261   1.35510   1.38080
 Alpha virt. eigenvalues --    1.38596   1.39082   1.40831   1.41748   1.42415
 Alpha virt. eigenvalues --    1.44619   1.46709   1.47412   1.47784   1.49217
 Alpha virt. eigenvalues --    1.49915   1.51701   1.52220   1.54115   1.55105
 Alpha virt. eigenvalues --    1.56054   1.58650   1.59359   1.60199   1.61554
 Alpha virt. eigenvalues --    1.62959   1.64779   1.66029   1.67268   1.69553
 Alpha virt. eigenvalues --    1.70606   1.71936   1.72267   1.72927   1.74122
 Alpha virt. eigenvalues --    1.74932   1.76920   1.77969   1.78476   1.79787
 Alpha virt. eigenvalues --    1.80402   1.81908   1.82408   1.86303   1.88949
 Alpha virt. eigenvalues --    1.89406   1.89664   1.91223   1.93675   1.94304
 Alpha virt. eigenvalues --    1.95394   1.96242   1.98267   1.99872   2.00559
 Alpha virt. eigenvalues --    2.03557   2.04415   2.06373   2.06957   2.08420
 Alpha virt. eigenvalues --    2.08727   2.10381   2.11603   2.11824   2.12005
 Alpha virt. eigenvalues --    2.13392   2.13687   2.13859   2.14690   2.16024
 Alpha virt. eigenvalues --    2.16654   2.17723   2.18749   2.19734   2.19826
 Alpha virt. eigenvalues --    2.20628   2.20980   2.22341   2.22940   2.23039
 Alpha virt. eigenvalues --    2.24448   2.25405   2.26036   2.26621   2.27231
 Alpha virt. eigenvalues --    2.27788   2.29034   2.30233   2.31029   2.31738
 Alpha virt. eigenvalues --    2.32594   2.33842   2.34509   2.35469   2.35973
 Alpha virt. eigenvalues --    2.36804   2.37136   2.38487   2.38861   2.39195
 Alpha virt. eigenvalues --    2.39495   2.41576   2.42020   2.43404   2.44856
 Alpha virt. eigenvalues --    2.45452   2.47061   2.48554   2.49278   2.50436
 Alpha virt. eigenvalues --    2.51204   2.51694   2.53832   2.54937   2.55631
 Alpha virt. eigenvalues --    2.56944   2.57622   2.58693   2.59565   2.60734
 Alpha virt. eigenvalues --    2.62483   2.63001   2.63727   2.64353   2.64673
 Alpha virt. eigenvalues --    2.66154   2.68260   2.69628   2.69899   2.71296
 Alpha virt. eigenvalues --    2.72508   2.73939   2.74506   2.75380   2.76078
 Alpha virt. eigenvalues --    2.76688   2.77657   2.79238   2.79384   2.79851
 Alpha virt. eigenvalues --    2.81652   2.82449   2.84469   2.84924   2.86096
 Alpha virt. eigenvalues --    2.87438   2.89141   2.90607   2.91741   2.95552
 Alpha virt. eigenvalues --    2.96683   2.97844   2.98495   2.99228   3.02108
 Alpha virt. eigenvalues --    3.02626   3.03077   3.05074   3.05832   3.06935
 Alpha virt. eigenvalues --    3.10327   3.10780   3.12839   3.13607   3.15452
 Alpha virt. eigenvalues --    3.15887   3.18066   3.21522   3.29925   3.30359
 Alpha virt. eigenvalues --    3.34147   3.35198   3.40129   3.40559   3.41644
 Alpha virt. eigenvalues --    3.42437   3.42892   3.54524   3.55455   3.57347
 Alpha virt. eigenvalues --    3.60313   4.38188   4.39985   4.48890   4.49010
 Alpha virt. eigenvalues --    4.49686   4.51663   4.55453   4.58173   4.60966
 Alpha virt. eigenvalues --    4.63201   4.66373   4.67183   4.69072   4.70000
 Alpha virt. eigenvalues --    4.71445   4.76515   4.77730   4.83233   4.86883
 Alpha virt. eigenvalues --    4.89031   4.92977   4.93861   4.94547   4.98612
 Alpha virt. eigenvalues --    5.00396   5.03839   5.23292   5.24760
          Condensed to atoms (all electrons):
 Mulliken atomic charges:
              1
     1  C   -0.281730
     2  N   -0.790922
     3  C    0.809175
     4  O   -0.603967
     5  C    0.094609
     6  C   -0.473101
     7  C   -0.338024
     8  C   -0.327386
     9  C   -0.369532
    10  C   -0.181436
    11  C   -0.174805
    12  C   -0.355410
    13  C   -0.310092
    14  C   -0.330024
    15  C    0.090719
    16  C   -0.510125
    17  N   -0.787308
    18  C    0.767300
    19  C   -0.595751
    20  O   -0.613305
    21  C    0.820305
    22  O   -0.640916
    23  N   -0.805611
    24  C   -0.275197
    25  N   -0.800453
    26  C    0.769792
    27  C   -0.589429
    28  O   -0.598514
    29  H    0.165293
    30  H    0.217844
    31  H    0.168978
    32  H    0.383036
    33  H    0.138767
    34  H    0.159295
    35  H    0.227112
    36  H    0.162518
    37  H    0.205303
    38  H    0.177175
    39  H    0.155813
    40  H    0.184722
    41  H    0.177773
    42  H    0.198028
    43  H    0.177702
    44  H    0.173314
    45  H    0.163833
    46  H    0.151765
    47  H    0.196375
    48  H    0.174732
    49  H    0.186883
    50  H    0.184358
    51  H    0.150001
    52  H    0.227096
    53  H    0.389264
    54  H    0.211879
    55  H    0.208679
    56  H    0.176555
    57  H    0.396566
    58  H    0.166719
    59  H    0.196515
    60  H    0.185472
    61  H    0.376107
    62  H    0.217687
    63  H    0.179787
    64  H    0.188191
 Sum of Mulliken atomic charges =   0.00000
 Mulliken charges with hydrogens summed into heavy atoms:
              1
     1  C    0.270384
     2  N   -0.407886
     3  C    0.809175
     4  O   -0.603967
     5  C    0.094609
     6  C    0.052073
     7  C    0.029798
     8  C    0.005602
     9  C   -0.007037
    10  C    0.016592
    11  C    0.002897
    12  C   -0.018263
    13  C    0.038048
    14  C    0.031591
    15  C    0.090719
    16  C    0.051329
    17  N   -0.398044
    18  C    0.767300
    19  C    0.001363
    20  O   -0.613305
    21  C    0.820305
    22  O   -0.640916
    23  N   -0.409045
    24  C    0.273509
    25  N   -0.424346
    26  C    0.769792
    27  C   -0.003765
    28  O   -0.598514
 Sum of Mulliken charges with hydrogens summed into heavy atoms =   0.00000
 Electronic spatial extent (au):  <R**2>=          22093.6353
 Charge=              0.0000 electrons
 Dipole moment (field-independent basis, Debye):
    X=             -0.2468    Y=             -5.5952    Z=             -1.1614  Tot=              5.7198
 Quadrupole moment (field-independent basis, Debye-Ang):
   XX=           -213.3400   YY=           -158.8560   ZZ=           -166.2557
   XY=             18.7073   XZ=             13.1952   YZ=              0.4431
 Traceless Quadrupole moment (field-independent basis, Debye-Ang):
   XX=            -33.8561   YY=             20.6279   ZZ=             13.2282
   XY=             18.7073   XZ=             13.1952   YZ=              0.4431
 Octapole moment (field-independent basis, Debye-Ang**2):
  XXX=           -148.5156  YYY=             47.2773  ZZZ=              4.8644  XYY=             42.1702
  XXY=           -283.8277  XXZ=            -12.0997  XZZ=              4.2928  YZZ=              3.5125
  YYZ=             -2.0564  XYZ=             72.5888
 Hexadecapole moment (field-independent basis, Debye-Ang**3):
 XXXX=         -27880.6130 YYYY=          -2274.8287 ZZZZ=          -1319.0240 XXXY=            747.1588
 XXXZ=           -479.0722 YYYX=            110.1421 YYYZ=              3.2233 ZZZX=             -2.3291
 ZZZY=              1.0025 XXYY=          -4368.5296 XXZZ=          -4213.3102 YYZZ=           -616.1115
 XXYZ=             49.5076 YYXZ=             25.8892 ZZXY=              6.3436
 N-N= 2.683842168975D+03 E-N=-8.399543882827D+03  KE= 1.294035382718D+03
 1\1\GINC-MOSURA\SP\RHF\6-31G(d)\C20H36N4O4\MARIE\05-Dec-2019\0\\#SP HF
 /6-31G* Geom=(ModRedundant)\\paramfit run\\0,1\C,0,0.,0.,0.\N,0,1.4481
 87,0.,0.\C,0,2.1232,0.47592,1.072365\O,0,1.590179,0.696732,2.124447\C,
 0,3.650505,0.594143,0.921539\C,0,4.155515,-0.482316,-0.04492\C,0,4.030
 613,2.018809,0.434255\C,0,3.493468,2.512731,-0.92116\C,0,2.065203,3.09
 1919,-0.95633\C,0,1.848515,4.251188,-0.01218\C,0,1.873984,5.542107,-0.
 301381\C,0,2.12727,6.176509,-1.647908\C,0,0.859125,6.683336,-2.358189\
 C,0,0.12589,7.76855,-1.558445\C,0,-1.066372,8.492242,-2.236254\C,0,-1.
 656639,9.475007,-1.211946\N,0,-0.56632,9.232685,-3.386569\C,0,-1.41365
 4,9.850764,-4.260102\C,0,-0.792901,10.241933,-5.581638\O,0,-2.565108,1
 0.070621,-4.005228\C,0,-2.064539,7.42664,-2.743087\O,0,-1.890072,6.888
 57,-3.803262\N,0,-3.062232,7.062025,-1.909034\C,0,-4.061465,6.106273,-
 2.34063\N,0,4.306848,0.460877,2.230311\C,0,4.20299,-0.646184,3.019804\
 C,0,5.21946,-0.735216,4.139172\O,0,3.362652,-1.483799,2.851363\H,0,-0.
 403259,1.006147,0.\H,0,-0.36496,-0.516002,0.875939\H,0,-0.345658,-0.52
 2086,-0.883346\H,0,1.904244,0.070913,-0.879357\H,0,3.664931,-0.408358,
 -1.003455\H,0,5.226342,-0.368402,-0.184889\H,0,3.955054,-1.467278,0.35
 0795\H,0,5.116451,2.026402,0.370052\H,0,3.766995,2.729934,1.210842\H,0
 ,4.170287,3.29445,-1.253499\H,0,3.563347,1.720221,-1.659008\H,0,1.3442
 79,2.315645,-0.734898\H,0,1.869566,3.399373,-1.977619\H,0,1.646903,3.9
 77941,1.010954\H,0,1.69076,6.232214,0.507286\H,0,2.627148,5.475747,-2.
 305571\H,0,2.815573,7.010065,-1.513682\H,0,1.154129,7.056175,-3.335091
 \H,0,0.196634,5.848608,-2.54571\H,0,0.832941,8.542554,-1.267701\H,0,-0
 .247986,7.329341,-0.641024\H,0,-0.917802,10.238516,-0.998042\H,0,-1.88
 8237,8.975969,-0.276689\H,0,-2.543299,9.960992,-1.590618\H,0,0.261999,
 8.868345,-3.798705\H,0,-1.386917,11.021372,-6.034055\H,0,-0.798252,9.3
 75563,-6.236238\H,0,0.231617,10.579164,-5.467532\H,0,-3.311871,7.67892
 6,-1.17254\H,0,-4.691881,5.860429,-1.496203\H,0,-3.577963,5.207009,-2.
 693015\H,0,-4.676859,6.501404,-3.14245\H,0,5.115852,1.025733,2.364467\
 H,0,4.83555,-1.389578,4.908195\H,0,5.447086,0.235465,4.565216\H,0,6.13
 981,-1.160075,3.751548\\Version=EM64L-G09RevA.02\State=1-A\HF=-1295.60
 44732\RMSD=4.577e-09\Dipole=2.0485217,0.7735851,-0.5188591\Quadrupole=
 19.4406839,-13.8414812,-5.5992027,4.905272,-5.9222383,20.321881\PG=C01
  [X(C20H36N4O4)]\\@


 Experience is what you get when you don't get what you want.
 -- Dan Stanford
 Job cpu time:  0 days  0 hours  5 minutes 11.4 seconds.
 File lengths (MBytes):  RWF=    132 Int=      0 D2E=      0 Chk=     10 Scr=      1
 Normal termination of Gaussian 09 at Thu Dec  5 16:16:00 2019.
