 Entering Gaussian System, Link 0=g09
 Input=PSI_-170.gau
 Output=PSI_-170.log
 Initial command:
 /home/marie/Utilities//g09/l1.exe /tmp/g09/Gau-2614.inp -scrdir=/tmp/g09/
 Entering Link 1 = /home/marie/Utilities//g09/l1.exe PID=      2617.
  
 Copyright (c) 1988,1990,1992,1993,1995,1998,2003,2009, Gaussian, Inc.
                  All Rights Reserved.
  
 This is part of the Gaussian(R) 09 program.  It is based on
 the Gaussian(R) 03 system (copyright 2003, Gaussian, Inc.),
 the Gaussian(R) 98 system (copyright 1998, Gaussian, Inc.),
 the Gaussian(R) 94 system (copyright 1995, Gaussian, Inc.),
 the Gaussian 92(TM) system (copyright 1992, Gaussian, Inc.),
 the Gaussian 90(TM) system (copyright 1990, Gaussian, Inc.),
 the Gaussian 88(TM) system (copyright 1988, Gaussian, Inc.),
 the Gaussian 86(TM) system (copyright 1986, Carnegie Mellon
 University), and the Gaussian 82(TM) system (copyright 1983,
 Carnegie Mellon University). Gaussian is a federally registered
 trademark of Gaussian, Inc.
  
 This software contains proprietary and confidential information,
 including trade secrets, belonging to Gaussian, Inc.
  
 This software is provided under written license and may be
 used, copied, transmitted, or stored only in accord with that
 written license.
  
 The following legend is applicable only to US Government
 contracts under FAR:
  
                    RESTRICTED RIGHTS LEGEND
  
 Use, reproduction and disclosure by the US Government is
 subject to restrictions as set forth in subparagraphs (a)
 and (c) of the Commercial Computer Software - Restricted
 Rights clause in FAR 52.227-19.
  
 Gaussian, Inc.
 340 Quinnipiac St., Bldg. 40, Wallingford CT 06492
  
  
 ---------------------------------------------------------------
 Warning -- This program may not be used in any manner that
 competes with the business of Gaussian, Inc. or will provide
 assistance to any competitor of Gaussian, Inc.  The licensee
 of this program is prohibited from giving any competitor of
 Gaussian, Inc. access to this program.  By using this program,
 the user acknowledges that Gaussian, Inc. is engaged in the
 business of creating and licensing software in the field of
 computational chemistry and represents and warrants to the
 licensee that it is not a competitor of Gaussian, Inc. and that
 it will not use this program in any manner prohibited above.
 ---------------------------------------------------------------
  

 Cite this work as:
 Gaussian 09, Revision A.02,
 M. J. Frisch, G. W. Trucks, H. B. Schlegel, G. E. Scuseria, 
 M. A. Robb, J. R. Cheeseman, G. Scalmani, V. Barone, B. Mennucci, 
 G. A. Petersson, H. Nakatsuji, M. Caricato, X. Li, H. P. Hratchian, 
 A. F. Izmaylov, J. Bloino, G. Zheng, J. L. Sonnenberg, M. Hada, 
 M. Ehara, K. Toyota, R. Fukuda, J. Hasegawa, M. Ishida, T. Nakajima, 
 Y. Honda, O. Kitao, H. Nakai, T. Vreven, J. A. Montgomery, Jr., 
 J. E. Peralta, F. Ogliaro, M. Bearpark, J. J. Heyd, E. Brothers, 
 K. N. Kudin, V. N. Staroverov, R. Kobayashi, J. Normand, 
 K. Raghavachari, A. Rendell, J. C. Burant, S. S. Iyengar, J. Tomasi, 
 M. Cossi, N. Rega, J. M. Millam, M. Klene, J. E. Knox, J. B. Cross, 
 V. Bakken, C. Adamo, J. Jaramillo, R. Gomperts, R. E. Stratmann, 
 O. Yazyev, A. J. Austin, R. Cammi, C. Pomelli, J. W. Ochterski, 
 R. L. Martin, K. Morokuma, V. G. Zakrzewski, G. A. Voth, 
 P. Salvador, J. J. Dannenberg, S. Dapprich, A. D. Daniels, 
 O. Farkas, J. B. Foresman, J. V. Ortiz, J. Cioslowski, 
 and D. J. Fox, Gaussian, Inc., Wallingford CT, 2009.
 
 ******************************************
 Gaussian 09:  EM64L-G09RevA.02 11-Jun-2009
                 5-Dec-2019 
 ******************************************
 %chk=PSI_-170
 %NoSave
 ---------------------------------
 #SP HF/6-31G* Geom=(ModRedundant)
 ---------------------------------
 1/18=120,38=1/1;
 2/12=2,17=6,18=5,40=1/2;
 3/5=1,6=6,7=1,11=9,16=1,25=1,30=1/1,2,3;
 4//1;
 5/5=2,38=5/2;
 6/7=2,8=2,9=2,10=2,28=1/1;
 99/5=1,9=1/99;
 ------------
 paramfit run
 ------------
 Symbolic Z-matrix:
 Charge =  0 Multiplicity = 1
 C-CT--0.3208          0.        0.        0. 
 N-N--0.5622           1.44819   0.        0. 
 C-C-0.8053            2.1232    0.47592   1.07237 
 O-O--0.6151           1.59018   0.69673   2.12445 
 C-CX-0.0839           3.65051   0.59414   0.92154 
 C-CU--0.3230          4.27827   0.90377   2.28458 
 C-CU--0.0657          4.22994  -0.71158   0.31249 
 C-CU--0.0109          4.0425   -2.03738   1.07195 
 C-CU-0.0816           2.70258  -2.77917   0.89592 
 C-CM--0.2354          2.36611  -3.10834  -0.5396 
 C-CM--0.2653          2.54724  -4.25936  -1.16657 
 C-CU-0.1214           3.13669  -5.52959  -0.60193 
 C-CU--0.0354          2.09657  -6.60668  -0.24471 
 C-CU--0.0984          1.28431  -7.07212  -1.46065 
 C-CU-0.1300           0.32635  -8.27781  -1.27824 
 C-CU--0.3561         -0.40384  -8.49735  -2.61319 
 N-N--0.7186           1.12002  -9.45688  -0.95981 
 C-C-0.8537            0.53325  -10.63684  -0.60422 
 C-CT--0.3868          1.45717  -11.63507   0.05512 
 O-O--0.6323          -0.62729  -10.87129  -0.79743 
 C-C-0.7903           -0.60875  -7.98633  -0.08268 
 O-O--0.6136          -0.24322  -8.20735   1.04047 
 N-N--0.5650          -1.78962  -7.38706  -0.34802 
 C-CT--0.3231         -2.73452  -7.13182   0.71979 
 N-N--0.7191           3.99001   1.64184  -0.05237 
 C-C-0.8539            3.6352    2.95088   0.08971 
 C-CT--0.3903          4.37001   3.91801  -0.81517 
 O-O--0.6290           2.79513   3.31259   0.86404 
 H-H1-0.1459          -0.40326   1.00615   0. 
 H-H1-0.1459          -0.36496  -0.516     0.87594 
 H-H1-0.1459          -0.34566  -0.52209  -0.88335 
 H-H-0.3572            1.90424   0.07091  -0.87936 
 H-HC-0.0997           4.01831   0.15236   3.01447 
 H-HC-0.0997           5.35888   0.94185   2.18427 
 H-HC-0.0997           3.92529   1.85555   2.65396 
 H-HC-0.0347           5.30079  -0.54289   0.22281 
 H-HC-0.0347           3.85278  -0.81604  -0.69999 
 H-HC-0.0243           4.83024  -2.70189   0.72915 
 H-HC-0.0243           4.21684  -1.88551   2.1321 
 H-HC-0.0171           1.89686  -2.19674   1.32365 
 H-HC-0.0171           2.76009  -3.68793   1.48471 
 H-HA-0.1313           1.92427  -2.30276  -1.10345 
 H-HA-0.1359           2.23968  -4.31202  -2.19923 
 H-HC-0.0092           3.7181   -5.31203   0.28582 
 H-HC-0.0092           3.83617  -5.93964  -1.32938 
 H-HC-0.0318           2.62616  -7.44019   0.20824 
 H-HC-0.0318           1.4339   -6.22393   0.52027 
 H-HC-0.0435           1.96316  -7.33572  -2.26887 
 H-HC-0.0435           0.68641  -6.24119  -1.81619 
 H-HC-0.1066           0.32216  -8.79473  -3.3609 
 H-HC-0.1066          -0.87158  -7.58196  -2.96053 
 H-HC-0.1066          -1.14772  -9.27623  -2.53748 
 H-H-0.3529            1.99069  -9.2753   -0.5152 
 H-HC-0.1047           1.03524  -12.62392  -0.04079 
 H-HC-0.1047           1.53464  -11.39027   1.1102 
 H-HC-0.1047           2.45256  -11.61622  -0.37525 
 H-H-0.3615           -2.15107  -7.4426   -1.27083 
 H-H1-0.1469          -3.55196  -6.54326   0.32442 
 H-H1-0.1469          -2.25075  -6.57685   1.5101 
 H-H1-0.1469          -3.12752  -8.05271   1.13844 
 H-H-0.3570            4.78766   1.45863  -0.6196 
 H-HC-0.1060           3.77975   4.81687  -0.91824 
 H-HC-0.1060           4.56672   3.49558  -1.79415 
 H-HC-0.1060           5.32044   4.17881  -0.36078 
 
 The following ModRedundant input section has been read:
 D    *    3    5    * F                                                       
 Stoichiometry    C20H36N4O4
 Framework group  C1[X(C20H36N4O4)]
 Deg. of freedom   186
 Full point group                 C1      NOp   1
 Largest Abelian subgroup         C1      NOp   1
 Largest concise Abelian subgroup C1      NOp   1
                         Standard orientation:                         
 ---------------------------------------------------------------------
 Center     Atomic      Atomic             Coordinates (Angstroms)
 Number     Number       Type             X           Y           Z
 ---------------------------------------------------------------------
      1          6    20001001       -3.183568    2.670149    0.601647
      2          7    20001014       -3.597729    1.286324    0.497991
      3          6    20001002       -4.353443    0.884641   -0.550654
      4          8    20001024       -4.518542    1.564865   -1.525222
      5          6    90000001       -4.887514   -0.557974   -0.495723
      6          6    90000002       -5.500873   -0.929943   -1.849707
      7          6    90000002       -3.747094   -1.535253   -0.100794
      8          6    90000002       -2.507608   -1.642152   -1.007370
      9          6    90000002       -1.399697   -0.584652   -0.831692
     10          6    20001004       -0.843642   -0.503994    0.570655
     11          6    20001004        0.265111   -1.059911    1.031502
     12          6    90000002        1.249317   -1.914230    0.269117
     13          6    90000002        2.536652   -1.179857   -0.146852
     14          6    90000002        3.336257   -0.659156    1.054986
     15          6    90000002        4.740428   -0.057013    0.789706
     16          6    90000002        5.294387    0.440593    2.134686
     17          7    20001014        5.604444   -1.107105    0.267871
     18          6    20001002        6.860314   -0.834456   -0.192031
     19          6    20001001        7.480061   -1.923504   -1.037428
     20          8    20001024        7.435276    0.189672    0.052348
     21          6    20001002        4.608375    1.041902   -0.289031
     22          8    20001024        4.600049    0.749153   -1.454431
     23          7    20001014        4.402127    2.307719    0.134230
     24          6    20001001        4.320409    3.392654   -0.822032
     25          7    20001014       -5.883675   -0.695467    0.576746
     26          6    20001002       -7.043937    0.019252    0.628120
     27          6    20001001       -8.083423   -0.510966    1.593757
     28          8    20001024       -7.227186    1.002670   -0.031766
     29          1    20001035       -4.026905    3.332813    0.758517
     30          1    20001035       -2.676750    2.968270   -0.304433
     31          1    20001035       -2.497308    2.764157    1.433851
     32          1    20001029       -3.706167    0.778115    1.344307
     33          1    20001034       -4.784913   -0.812317   -2.648767
     34          1    20001034       -5.835975   -1.962527   -1.822972
     35          1    20001034       -6.344408   -0.291678   -2.068778
     36          1    20001034       -4.204943   -2.521393   -0.067261
     37          1    20001034       -3.436596   -1.309531    0.914549
     38          1    20001034       -2.064823   -2.613891   -0.809164
     39          1    20001034       -2.810131   -1.656007   -2.049322
     40          1    20001034       -1.767771    0.390531   -1.123072
     41          1    20001034       -0.610230   -0.828510   -1.533909
     42          1    20001033       -1.427425    0.081285    1.262580
     43          1    20001033        0.508407   -0.888526    2.068418
     44          1    20001034        0.785335   -2.316985   -0.623057
     45          1    20001034        1.514059   -2.771718    0.886547
     46          1    20001034        3.133247   -1.868279   -0.738901
     47          1    20001034        2.283572   -0.361135   -0.807516
     48          1    20001034        3.475586   -1.465011    1.772426
     49          1    20001034        2.751733    0.104026    1.555223
     50          1    20001034        5.446252   -0.413301    2.784597
     51          1    20001034        4.591335    1.103535    2.628252
     52          1    20001034        6.241535    0.944645    2.013939
     53          1    20001029        5.137158   -1.842532   -0.211195
     54          1    20001034        8.552683   -1.802916   -1.038153
     55          1    20001034        7.117207   -1.819715   -2.055607
     56          1    20001034        7.221260   -2.914473   -0.680518
     57          1    20001029        4.652387    2.541288    1.065963
     58          1    20001035        4.033670    4.294640   -0.297512
     59          1    20001035        3.572791    3.165997   -1.567900
     60          1    20001035        5.267593    3.558145   -1.325232
     61          1    20001029       -5.879463   -1.567483    1.057494
     62          1    20001034       -8.760558    0.290038    1.852322
     63          1    20001034       -7.637478   -0.917758    2.494426
     64          1    20001034       -8.649996   -1.299747    1.109383
 ---------------------------------------------------------------------
 Rotational constants (GHZ):      0.4260567      0.0495307      0.0476209
 Standard basis: 6-31G(d) (6D, 7F)
 There are   492 symmetry adapted basis functions of A   symmetry.
 Integral buffers will be    131072 words long.
 Raffenetti 1 integral format.
 Two-electron integral symmetry is turned on.
   492 basis functions,   928 primitive gaussians,   492 cartesian basis functions
   108 alpha electrons      108 beta electrons
       nuclear repulsion energy      2690.9536388082 Hartrees.
 NAtoms=   64 NActive=   64 NUniq=   64 SFac= 7.50D-01 NAtFMM=   80 NAOKFM=F Big=T
 One-electron integrals computed using PRISM.
 NBasis=   492 RedAO= T  NBF=   492
 NBsUse=   492 1.00D-06 NBFU=   492
 Harris functional with IExCor=  205 diagonalized for initial guess.
 ExpMin= 1.61D-01 ExpMax= 5.48D+03 ExpMxC= 8.25D+02 IAcc=1 IRadAn=         1 AccDes= 0.00D+00
 HarFok:  IExCor=  205 AccDes= 0.00D+00 IRadAn=         1 IDoV= 1
 ScaDFX=  1.000000  1.000000  1.000000  1.000000
 FoFCou: FMM=F IPFlag=           0 FMFlag=      100000 FMFlg1=           1
         NFxFlg=           0 DoJE=T BraDBF=F KetDBF=T FulRan=T
         Omega=  0.000000  0.000000  1.000000  0.000000  0.000000 ICntrl=     500 IOpCl=  0
         NMat0=    1 NMatS0=    1 NMatT0=    0 NMatD0=    1 NMtDS0=    0 NMtDT0=    0
         I1Cent=           4 NGrid=           0.
 Petite list used in FoFCou.
 Initial guess orbital symmetries:
       Occupied  (A) (A) (A) (A) (A) (A) (A) (A) (A) (A) (A) (A)
                 (A) (A) (A) (A) (A) (A) (A) (A) (A) (A) (A) (A)
                 (A) (A) (A) (A) (A) (A) (A) (A) (A) (A) (A) (A)
                 (A) (A) (A) (A) (A) (A) (A) (A) (A) (A) (A) (A)
                 (A) (A) (A) (A) (A) (A) (A) (A) (A) (A) (A) (A)
                 (A) (A) (A) (A) (A) (A) (A) (A) (A) (A) (A) (A)
                 (A) (A) (A) (A) (A) (A) (A) (A) (A) (A) (A) (A)
                 (A) (A) (A) (A) (A) (A) (A) (A) (A) (A) (A) (A)
                 (A) (A) (A) (A) (A) (A) (A) (A) (A) (A) (A) (A)
       Virtual   (A) (A) (A) (A) (A) (A) (A) (A) (A) (A) (A) (A)
                 (A) (A) (A) (A) (A) (A) (A) (A) (A) (A) (A) (A)
                 (A) (A) (A) (A) (A) (A) (A) (A) (A) (A) (A) (A)
                 (A) (A) (A) (A) (A) (A) (A) (A) (A) (A) (A) (A)
                 (A) (A) (A) (A) (A) (A) (A) (A) (A) (A) (A) (A)
                 (A) (A) (A) (A) (A) (A) (A) (A) (A) (A) (A) (A)
                 (A) (A) (A) (A) (A) (A) (A) (A) (A) (A) (A) (A)
                 (A) (A) (A) (A) (A) (A) (A) (A) (A) (A) (A) (A)
                 (A) (A) (A) (A) (A) (A) (A) (A) (A) (A) (A) (A)
                 (A) (A) (A) (A) (A) (A) (A) (A) (A) (A) (A) (A)
                 (A) (A) (A) (A) (A) (A) (A) (A) (A) (A) (A) (A)
                 (A) (A) (A) (A) (A) (A) (A) (A) (A) (A) (A) (A)
                 (A) (A) (A) (A) (A) (A) (A) (A) (A) (A) (A) (A)
                 (A) (A) (A) (A) (A) (A) (A) (A) (A) (A) (A) (A)
                 (A) (A) (A) (A) (A) (A) (A) (A) (A) (A) (A) (A)
                 (A) (A) (A) (A) (A) (A) (A) (A) (A) (A) (A) (A)
                 (A) (A) (A) (A) (A) (A) (A) (A) (A) (A) (A) (A)
                 (A) (A) (A) (A) (A) (A) (A) (A) (A) (A) (A) (A)
                 (A) (A) (A) (A) (A) (A) (A) (A) (A) (A) (A) (A)
                 (A) (A) (A) (A) (A) (A) (A) (A) (A) (A) (A) (A)
                 (A) (A) (A) (A) (A) (A) (A) (A) (A) (A) (A) (A)
                 (A) (A) (A) (A) (A) (A) (A) (A) (A) (A) (A) (A)
                 (A) (A) (A) (A) (A) (A) (A) (A) (A) (A) (A) (A)
                 (A) (A) (A) (A) (A) (A) (A) (A) (A) (A) (A) (A)
                 (A) (A) (A) (A) (A) (A) (A) (A) (A) (A) (A) (A)
                 (A) (A) (A) (A) (A) (A) (A) (A) (A) (A) (A) (A)
                 (A) (A) (A) (A) (A) (A) (A) (A) (A) (A) (A) (A)
                 (A) (A) (A) (A) (A) (A) (A) (A) (A) (A) (A) (A)
                 (A) (A) (A) (A) (A) (A) (A) (A) (A) (A) (A) (A)
                 (A) (A) (A) (A) (A) (A) (A) (A) (A) (A) (A) (A)
                 (A) (A) (A) (A) (A) (A) (A) (A) (A) (A) (A) (A)
                 (A) (A) (A) (A) (A) (A) (A) (A) (A) (A) (A) (A)
 The electronic state of the initial guess is 1-A.
 Requested convergence on RMS density matrix=1.00D-08 within 128 cycles.
 Requested convergence on MAX density matrix=1.00D-06.
 Requested convergence on             energy=1.00D-06.
 No special actions if energy rises.
 Integral accuracy reduced to 1.0D-05 until final iterations.
 Initial convergence to 1.0D-05 achieved.  Increase integral accuracy.
 SCF Done:  E(RHF) =  -1295.61178824     A.U. after   14 cycles
             Convg  =    0.7378D-08             -V/T =  2.0012

 **********************************************************************

            Population analysis using the SCF density.

 **********************************************************************

 Orbital symmetries:
       Occupied  (A) (A) (A) (A) (A) (A) (A) (A) (A) (A) (A) (A)
                 (A) (A) (A) (A) (A) (A) (A) (A) (A) (A) (A) (A)
                 (A) (A) (A) (A) (A) (A) (A) (A) (A) (A) (A) (A)
                 (A) (A) (A) (A) (A) (A) (A) (A) (A) (A) (A) (A)
                 (A) (A) (A) (A) (A) (A) (A) (A) (A) (A) (A) (A)
                 (A) (A) (A) (A) (A) (A) (A) (A) (A) (A) (A) (A)
                 (A) (A) (A) (A) (A) (A) (A) (A) (A) (A) (A) (A)
                 (A) (A) (A) (A) (A) (A) (A) (A) (A) (A) (A) (A)
                 (A) (A) (A) (A) (A) (A) (A) (A) (A) (A) (A) (A)
       Virtual   (A) (A) (A) (A) (A) (A) (A) (A) (A) (A) (A) (A)
                 (A) (A) (A) (A) (A) (A) (A) (A) (A) (A) (A) (A)
                 (A) (A) (A) (A) (A) (A) (A) (A) (A) (A) (A) (A)
                 (A) (A) (A) (A) (A) (A) (A) (A) (A) (A) (A) (A)
                 (A) (A) (A) (A) (A) (A) (A) (A) (A) (A) (A) (A)
                 (A) (A) (A) (A) (A) (A) (A) (A) (A) (A) (A) (A)
                 (A) (A) (A) (A) (A) (A) (A) (A) (A) (A) (A) (A)
                 (A) (A) (A) (A) (A) (A) (A) (A) (A) (A) (A) (A)
                 (A) (A) (A) (A) (A) (A) (A) (A) (A) (A) (A) (A)
                 (A) (A) (A) (A) (A) (A) (A) (A) (A) (A) (A) (A)
                 (A) (A) (A) (A) (A) (A) (A) (A) (A) (A) (A) (A)
                 (A) (A) (A) (A) (A) (A) (A) (A) (A) (A) (A) (A)
                 (A) (A) (A) (A) (A) (A) (A) (A) (A) (A) (A) (A)
                 (A) (A) (A) (A) (A) (A) (A) (A) (A) (A) (A) (A)
                 (A) (A) (A) (A) (A) (A) (A) (A) (A) (A) (A) (A)
                 (A) (A) (A) (A) (A) (A) (A) (A) (A) (A) (A) (A)
                 (A) (A) (A) (A) (A) (A) (A) (A) (A) (A) (A) (A)
                 (A) (A) (A) (A) (A) (A) (A) (A) (A) (A) (A) (A)
                 (A) (A) (A) (A) (A) (A) (A) (A) (A) (A) (A) (A)
                 (A) (A) (A) (A) (A) (A) (A) (A) (A) (A) (A) (A)
                 (A) (A) (A) (A) (A) (A) (A) (A) (A) (A) (A) (A)
                 (A) (A) (A) (A) (A) (A) (A) (A) (A) (A) (A) (A)
                 (A) (A) (A) (A) (A) (A) (A) (A) (A) (A) (A) (A)
                 (A) (A) (A) (A) (A) (A) (A) (A) (A) (A) (A) (A)
                 (A) (A) (A) (A) (A) (A) (A) (A) (A) (A) (A) (A)
                 (A) (A) (A) (A) (A) (A) (A) (A) (A) (A) (A) (A)
                 (A) (A) (A) (A) (A) (A) (A) (A) (A) (A) (A) (A)
                 (A) (A) (A) (A) (A) (A) (A) (A) (A) (A) (A) (A)
                 (A) (A) (A) (A) (A) (A) (A) (A) (A) (A) (A) (A)
                 (A) (A) (A) (A) (A) (A) (A) (A) (A) (A) (A) (A)
                 (A) (A) (A) (A) (A) (A) (A) (A) (A) (A) (A) (A)
                 (A) (A) (A) (A) (A) (A) (A) (A) (A) (A) (A) (A)
 The electronic state is 1-A.
 Alpha  occ. eigenvalues --  -20.52793 -20.52204 -20.51787 -20.51759 -15.59209
 Alpha  occ. eigenvalues --  -15.58090 -15.57878 -15.57701 -11.35279 -11.34412
 Alpha  occ. eigenvalues --  -11.33873 -11.33703 -11.28915 -11.28772 -11.25289
 Alpha  occ. eigenvalues --  -11.25157 -11.24194 -11.23840 -11.23652 -11.23109
 Alpha  occ. eigenvalues --  -11.22894 -11.22697 -11.22652 -11.22645 -11.22491
 Alpha  occ. eigenvalues --  -11.22216 -11.21991 -11.20645  -1.39827  -1.39542
 Alpha  occ. eigenvalues --   -1.38442  -1.38267  -1.24923  -1.23731  -1.22802
 Alpha  occ. eigenvalues --   -1.22572  -1.11108  -1.09438  -1.07371  -1.04363
 Alpha  occ. eigenvalues --   -1.01232  -0.99232  -0.98826  -0.95814  -0.95325
 Alpha  occ. eigenvalues --   -0.94763  -0.92417  -0.87334  -0.85933  -0.83235
 Alpha  occ. eigenvalues --   -0.81463  -0.79669  -0.78718  -0.77361  -0.77060
 Alpha  occ. eigenvalues --   -0.72196  -0.71446  -0.70942  -0.68607  -0.68186
 Alpha  occ. eigenvalues --   -0.67124  -0.65745  -0.64718  -0.64049  -0.63898
 Alpha  occ. eigenvalues --   -0.62579  -0.62423  -0.61848  -0.61577  -0.61314
 Alpha  occ. eigenvalues --   -0.60796  -0.59893  -0.59411  -0.58868  -0.58369
 Alpha  occ. eigenvalues --   -0.58203  -0.57864  -0.56631  -0.56541  -0.56381
 Alpha  occ. eigenvalues --   -0.55729  -0.55091  -0.54950  -0.54845  -0.54175
 Alpha  occ. eigenvalues --   -0.53295  -0.52870  -0.52400  -0.51894  -0.51776
 Alpha  occ. eigenvalues --   -0.50641  -0.50329  -0.49943  -0.49614  -0.48819
 Alpha  occ. eigenvalues --   -0.48612  -0.47261  -0.46670  -0.44979  -0.42536
 Alpha  occ. eigenvalues --   -0.41693  -0.41231  -0.41224  -0.39021  -0.38923
 Alpha  occ. eigenvalues --   -0.38497  -0.38443  -0.34975
 Alpha virt. eigenvalues --    0.16776   0.19118   0.19475   0.20004   0.20307
 Alpha virt. eigenvalues --    0.21409   0.21735   0.21875   0.22967   0.23569
 Alpha virt. eigenvalues --    0.25291   0.25418   0.26106   0.26899   0.27399
 Alpha virt. eigenvalues --    0.27553   0.27956   0.28735   0.29310   0.29631
 Alpha virt. eigenvalues --    0.30090   0.30390   0.30992   0.31156   0.31760
 Alpha virt. eigenvalues --    0.31989   0.32112   0.32946   0.33291   0.33525
 Alpha virt. eigenvalues --    0.33881   0.34289   0.34584   0.35103   0.35285
 Alpha virt. eigenvalues --    0.35519   0.35677   0.36657   0.37248   0.37674
 Alpha virt. eigenvalues --    0.38256   0.39124   0.39186   0.39462   0.40001
 Alpha virt. eigenvalues --    0.40114   0.41298   0.41909   0.42417   0.43734
 Alpha virt. eigenvalues --    0.44462   0.44594   0.45152   0.46035   0.46368
 Alpha virt. eigenvalues --    0.47122   0.48837   0.49086   0.51893   0.53050
 Alpha virt. eigenvalues --    0.53380   0.54924   0.57568   0.59262   0.59922
 Alpha virt. eigenvalues --    0.61924   0.63376   0.64168   0.68633   0.69903
 Alpha virt. eigenvalues --    0.70327   0.71085   0.71514   0.72088   0.72494
 Alpha virt. eigenvalues --    0.73356   0.74576   0.75091   0.75744   0.76356
 Alpha virt. eigenvalues --    0.77194   0.77406   0.77874   0.78354   0.78820
 Alpha virt. eigenvalues --    0.79506   0.80051   0.80498   0.81111   0.81466
 Alpha virt. eigenvalues --    0.83351   0.83882   0.85105   0.85443   0.86077
 Alpha virt. eigenvalues --    0.86950   0.88006   0.88680   0.90044   0.90533
 Alpha virt. eigenvalues --    0.91826   0.92221   0.92744   0.92966   0.94170
 Alpha virt. eigenvalues --    0.94693   0.96079   0.96887   0.97363   0.98142
 Alpha virt. eigenvalues --    0.98574   0.98916   0.99908   1.00337   1.00939
 Alpha virt. eigenvalues --    1.01311   1.01705   1.01975   1.02493   1.03692
 Alpha virt. eigenvalues --    1.03925   1.04976   1.06101   1.06967   1.07373
 Alpha virt. eigenvalues --    1.08034   1.08380   1.08748   1.10049   1.10298
 Alpha virt. eigenvalues --    1.12594   1.12776   1.13207   1.13832   1.13970
 Alpha virt. eigenvalues --    1.14283   1.14725   1.14994   1.15743   1.15797
 Alpha virt. eigenvalues --    1.15908   1.16428   1.16731   1.17477   1.17661
 Alpha virt. eigenvalues --    1.18085   1.18929   1.19070   1.19139   1.19400
 Alpha virt. eigenvalues --    1.19494   1.20094   1.20668   1.21195   1.21479
 Alpha virt. eigenvalues --    1.22017   1.22227   1.22533   1.22857   1.23194
 Alpha virt. eigenvalues --    1.23577   1.23932   1.24647   1.25557   1.25779
 Alpha virt. eigenvalues --    1.26037   1.27073   1.27373   1.28786   1.28999
 Alpha virt. eigenvalues --    1.29571   1.30061   1.30674   1.31086   1.31479
 Alpha virt. eigenvalues --    1.32687   1.33710   1.35157   1.35700   1.37294
 Alpha virt. eigenvalues --    1.37684   1.38672   1.40293   1.41851   1.44005
 Alpha virt. eigenvalues --    1.44342   1.45828   1.46266   1.47766   1.48340
 Alpha virt. eigenvalues --    1.49486   1.50370   1.53370   1.54271   1.55654
 Alpha virt. eigenvalues --    1.56565   1.58476   1.59383   1.59916   1.61072
 Alpha virt. eigenvalues --    1.62405   1.63667   1.66298   1.67013   1.69407
 Alpha virt. eigenvalues --    1.70846   1.71405   1.72078   1.73085   1.73978
 Alpha virt. eigenvalues --    1.74950   1.75897   1.76884   1.78313   1.79193
 Alpha virt. eigenvalues --    1.80363   1.81663   1.83476   1.86050   1.89303
 Alpha virt. eigenvalues --    1.89784   1.91009   1.91666   1.92367   1.93291
 Alpha virt. eigenvalues --    1.95665   1.96734   1.98289   1.99466   2.00723
 Alpha virt. eigenvalues --    2.03364   2.04402   2.06568   2.07412   2.08370
 Alpha virt. eigenvalues --    2.09242   2.10708   2.11246   2.11907   2.12189
 Alpha virt. eigenvalues --    2.13758   2.14055   2.14981   2.16097   2.16624
 Alpha virt. eigenvalues --    2.17172   2.17779   2.18835   2.19661   2.19818
 Alpha virt. eigenvalues --    2.20080   2.21610   2.21804   2.22442   2.22891
 Alpha virt. eigenvalues --    2.24808   2.24981   2.25740   2.26183   2.27219
 Alpha virt. eigenvalues --    2.27558   2.28720   2.30235   2.31258   2.31625
 Alpha virt. eigenvalues --    2.32662   2.33221   2.33985   2.35376   2.36039
 Alpha virt. eigenvalues --    2.36640   2.36865   2.38043   2.38205   2.38880
 Alpha virt. eigenvalues --    2.39246   2.40157   2.41788   2.43237   2.44857
 Alpha virt. eigenvalues --    2.45635   2.46915   2.48098   2.48839   2.51042
 Alpha virt. eigenvalues --    2.51787   2.52023   2.54439   2.54636   2.55909
 Alpha virt. eigenvalues --    2.57070   2.57169   2.57907   2.59073   2.60893
 Alpha virt. eigenvalues --    2.62269   2.63007   2.64103   2.64515   2.65360
 Alpha virt. eigenvalues --    2.67634   2.69041   2.69932   2.70257   2.71549
 Alpha virt. eigenvalues --    2.72454   2.73182   2.74382   2.75300   2.76197
 Alpha virt. eigenvalues --    2.77603   2.78493   2.78843   2.79349   2.79620
 Alpha virt. eigenvalues --    2.81726   2.82042   2.83432   2.84706   2.86161
 Alpha virt. eigenvalues --    2.87553   2.89637   2.90811   2.92514   2.95637
 Alpha virt. eigenvalues --    2.96816   2.97793   2.98415   3.00017   3.01665
 Alpha virt. eigenvalues --    3.02058   3.03124   3.05227   3.05975   3.07448
 Alpha virt. eigenvalues --    3.10847   3.11282   3.12925   3.13217   3.15522
 Alpha virt. eigenvalues --    3.16166   3.18341   3.22541   3.30405   3.31781
 Alpha virt. eigenvalues --    3.34152   3.34222   3.39329   3.40336   3.40990
 Alpha virt. eigenvalues --    3.42529   3.43729   3.54160   3.55535   3.57417
 Alpha virt. eigenvalues --    3.58325   4.38255   4.41737   4.43818   4.47739
 Alpha virt. eigenvalues --    4.49004   4.51738   4.55966   4.58177   4.60954
 Alpha virt. eigenvalues --    4.62910   4.66132   4.67290   4.68815   4.69977
 Alpha virt. eigenvalues --    4.73822   4.77379   4.78845   4.83170   4.84326
 Alpha virt. eigenvalues --    4.89123   4.93451   4.93830   4.96983   4.98278
 Alpha virt. eigenvalues --    5.02018   5.10579   5.22903   5.23469
          Condensed to atoms (all electrons):
 Mulliken atomic charges:
              1
     1  C   -0.278165
     2  N   -0.791354
     3  C    0.824729
     4  O   -0.607668
     5  C    0.080309
     6  C   -0.464031
     7  C   -0.331897
     8  C   -0.316674
     9  C   -0.358115
    10  C   -0.168889
    11  C   -0.175064
    12  C   -0.354031
    13  C   -0.310726
    14  C   -0.329184
    15  C    0.091150
    16  C   -0.509601
    17  N   -0.787572
    18  C    0.767247
    19  C   -0.595756
    20  O   -0.613576
    21  C    0.820430
    22  O   -0.639228
    23  N   -0.806275
    24  C   -0.275685
    25  N   -0.827195
    26  C    0.748511
    27  C   -0.588953
    28  O   -0.584453
    29  H    0.185452
    30  H    0.202453
    31  H    0.162442
    32  H    0.382310
    33  H    0.182829
    34  H    0.141244
    35  H    0.224964
    36  H    0.163411
    37  H    0.164721
    38  H    0.167505
    39  H    0.178992
    40  H    0.200666
    41  H    0.175928
    42  H    0.167580
    43  H    0.170409
    44  H    0.177157
    45  H    0.161521
    46  H    0.152224
    47  H    0.199066
    48  H    0.173637
    49  H    0.184189
    50  H    0.183817
    51  H    0.148083
    52  H    0.227202
    53  H    0.389694
    54  H    0.211619
    55  H    0.209541
    56  H    0.176378
    57  H    0.395486
    58  H    0.165130
    59  H    0.199187
    60  H    0.185682
    61  H    0.379503
    62  H    0.218433
    63  H    0.175233
    64  H    0.198028
 Sum of Mulliken atomic charges =   0.00000
 Mulliken charges with hydrogens summed into heavy atoms:
              1
     1  C    0.272183
     2  N   -0.409044
     3  C    0.824729
     4  O   -0.607668
     5  C    0.080309
     6  C    0.085006
     7  C   -0.003765
     8  C    0.029823
     9  C    0.018479
    10  C   -0.001309
    11  C   -0.004655
    12  C   -0.015353
    13  C    0.040564
    14  C    0.028642
    15  C    0.091150
    16  C    0.049502
    17  N   -0.397877
    18  C    0.767247
    19  C    0.001782
    20  O   -0.613576
    21  C    0.820430
    22  O   -0.639228
    23  N   -0.410789
    24  C    0.274315
    25  N   -0.447692
    26  C    0.748511
    27  C    0.002740
    28  O   -0.584453
 Sum of Mulliken charges with hydrogens summed into heavy atoms =   0.00000
 Electronic spatial extent (au):  <R**2>=          21938.3603
 Charge=              0.0000 electrons
 Dipole moment (field-independent basis, Debye):
    X=             -1.0276    Y=             -5.1480    Z=              6.2201  Tot=              8.1392
 Quadrupole moment (field-independent basis, Debye-Ang):
   XX=           -208.1258   YY=           -158.6873   ZZ=           -171.9712
   XY=             19.5697   XZ=            -17.3685   YZ=             10.4012
 Traceless Quadrupole moment (field-independent basis, Debye-Ang):
   XX=            -28.5310   YY=             20.9074   ZZ=              7.6236
   XY=             19.5697   XZ=            -17.3685   YZ=             10.4012
 Octapole moment (field-independent basis, Debye-Ang**2):
  XXX=           -190.5693  YYY=             42.4767  ZZZ=             13.8649  XYY=             75.6854
  XXY=           -271.1492  XXZ=            159.1649  XZZ=             -7.5965  YZZ=             -1.1190
  YYZ=              7.2099  XYZ=              2.9164
 Hexadecapole moment (field-independent basis, Debye-Ang**3):
 XXXX=         -27482.6573 YYYY=          -2230.9221 ZZZZ=          -1280.7024 XXXY=            573.1664
 XXXZ=          -1049.8953 YYYX=            118.6100 YYYZ=              8.5132 ZZZX=            -39.6583
 ZZZY=             14.6367 XXYY=          -4321.5588 XXZZ=          -4334.2742 YYZZ=           -606.2222
 XXYZ=            242.0122 YYXZ=            -86.9451 ZZXY=             31.6883
 N-N= 2.690953638808D+03 E-N=-8.413751397727D+03  KE= 1.294033818439D+03
 1\1\GINC-MOSURA\SP\RHF\6-31G(d)\C20H36N4O4\MARIE\05-Dec-2019\0\\#SP HF
 /6-31G* Geom=(ModRedundant)\\paramfit run\\0,1\C,0,0.,0.,0.\N,0,1.4481
 87,0.,0.\C,0,2.1232,0.47592,1.072365\O,0,1.590179,0.696732,2.124447\C,
 0,3.650505,0.594143,0.921539\C,0,4.278269,0.90377,2.284582\C,0,4.22993
 9,-0.711583,0.312493\C,0,4.042502,-2.037376,1.071949\C,0,2.702579,-2.7
 79169,0.895919\C,0,2.366106,-3.108339,-0.539599\C,0,2.547243,-4.259365
 ,-1.166565\C,0,3.136693,-5.529594,-0.601925\C,0,2.096572,-6.606679,-0.
 244711\C,0,1.284313,-7.072124,-1.460651\C,0,0.326346,-8.277807,-1.2782
 4\C,0,-0.403838,-8.497353,-2.613187\N,0,1.120024,-9.456877,-0.959808\C
 ,0,0.53325,-10.636838,-0.604216\C,0,1.457169,-11.635068,0.055115\O,0,-
 0.627286,-10.871291,-0.797425\C,0,-0.608751,-7.986329,-0.082682\O,0,-0
 .243216,-8.207354,1.040466\N,0,-1.789623,-7.387065,-0.348022\C,0,-2.73
 4524,-7.131819,0.719785\N,0,3.990012,1.641837,-0.052372\C,0,3.635198,2
 .950879,0.089713\C,0,4.370013,3.918014,-0.815171\O,0,2.795126,3.312589
 ,0.864041\H,0,-0.403259,1.006147,0.\H,0,-0.36496,-0.516002,0.875939\H,
 0,-0.345658,-0.522086,-0.883346\H,0,1.904244,0.070913,-0.879357\H,0,4.
 01831,0.152361,3.014471\H,0,5.358882,0.941845,2.18427\H,0,3.92529,1.85
 5552,2.653964\H,0,5.30079,-0.542888,0.222813\H,0,3.852776,-0.816036,-0
 .699988\H,0,4.830236,-2.701891,0.729145\H,0,4.216838,-1.88551,2.132099
 \H,0,1.896856,-2.196743,1.32365\H,0,2.760085,-3.687932,1.484711\H,0,1.
 924267,-2.302755,-1.10345\H,0,2.239676,-4.312019,-2.199227\H,0,3.7181,
 -5.312027,0.285823\H,0,3.836166,-5.939643,-1.329381\H,0,2.626158,-7.44
 0193,0.208241\H,0,1.433903,-6.223928,0.520274\H,0,1.963155,-7.335723,-
 2.268874\H,0,0.68641,-6.241186,-1.816186\H,0,0.322156,-8.794729,-3.360
 904\H,0,-0.871582,-7.581959,-2.960534\H,0,-1.147717,-9.276231,-2.53747
 5\H,0,1.990693,-9.2753,-0.515198\H,0,1.035237,-12.623924,-0.040793\H,0
 ,1.534642,-11.390267,1.110195\H,0,2.452563,-11.616218,-0.375254\H,0,-2
 .151073,-7.442597,-1.270833\H,0,-3.551963,-6.543263,0.324417\H,0,-2.25
 0745,-6.576849,1.510096\H,0,-3.127524,-8.052706,1.138441\H,0,4.787658,
 1.45863,-0.619597\H,0,3.779752,4.816871,-0.918235\H,0,4.566725,3.49557
 5,-1.79415\H,0,5.32044,4.178811,-0.360778\\Version=EM64L-G09RevA.02\St
 ate=1-A\HF=-1295.6117882\RMSD=7.378e-09\Dipole=1.8758116,0.1383024,-2.
 591597\Quadrupole=20.9686077,-21.9537502,0.9851425,0.6707034,2.7156393
 ,-18.1921472\PG=C01 [X(C20H36N4O4)]\\@


 The cat could very well be man's best friend
 but would never stoop to admitting it.
                               -- Doug Larson
 Job cpu time:  0 days  0 hours  5 minutes 19.4 seconds.
 File lengths (MBytes):  RWF=    132 Int=      0 D2E=      0 Chk=     10 Scr=      1
 Normal termination of Gaussian 09 at Thu Dec  5 16:05:02 2019.
