 Entering Gaussian System, Link 0=g09
 Input=PSI_-160.gau
 Output=PSI_-160.log
 Initial command:
 /home/marie/Utilities//g09/l1.exe /tmp/g09/Gau-2957.inp -scrdir=/tmp/g09/
 Entering Link 1 = /home/marie/Utilities//g09/l1.exe PID=      2959.
  
 Copyright (c) 1988,1990,1992,1993,1995,1998,2003,2009, Gaussian, Inc.
                  All Rights Reserved.
  
 This is part of the Gaussian(R) 09 program.  It is based on
 the Gaussian(R) 03 system (copyright 2003, Gaussian, Inc.),
 the Gaussian(R) 98 system (copyright 1998, Gaussian, Inc.),
 the Gaussian(R) 94 system (copyright 1995, Gaussian, Inc.),
 the Gaussian 92(TM) system (copyright 1992, Gaussian, Inc.),
 the Gaussian 90(TM) system (copyright 1990, Gaussian, Inc.),
 the Gaussian 88(TM) system (copyright 1988, Gaussian, Inc.),
 the Gaussian 86(TM) system (copyright 1986, Carnegie Mellon
 University), and the Gaussian 82(TM) system (copyright 1983,
 Carnegie Mellon University). Gaussian is a federally registered
 trademark of Gaussian, Inc.
  
 This software contains proprietary and confidential information,
 including trade secrets, belonging to Gaussian, Inc.
  
 This software is provided under written license and may be
 used, copied, transmitted, or stored only in accord with that
 written license.
  
 The following legend is applicable only to US Government
 contracts under FAR:
  
                    RESTRICTED RIGHTS LEGEND
  
 Use, reproduction and disclosure by the US Government is
 subject to restrictions as set forth in subparagraphs (a)
 and (c) of the Commercial Computer Software - Restricted
 Rights clause in FAR 52.227-19.
  
 Gaussian, Inc.
 340 Quinnipiac St., Bldg. 40, Wallingford CT 06492
  
  
 ---------------------------------------------------------------
 Warning -- This program may not be used in any manner that
 competes with the business of Gaussian, Inc. or will provide
 assistance to any competitor of Gaussian, Inc.  The licensee
 of this program is prohibited from giving any competitor of
 Gaussian, Inc. access to this program.  By using this program,
 the user acknowledges that Gaussian, Inc. is engaged in the
 business of creating and licensing software in the field of
 computational chemistry and represents and warrants to the
 licensee that it is not a competitor of Gaussian, Inc. and that
 it will not use this program in any manner prohibited above.
 ---------------------------------------------------------------
  

 Cite this work as:
 Gaussian 09, Revision A.02,
 M. J. Frisch, G. W. Trucks, H. B. Schlegel, G. E. Scuseria, 
 M. A. Robb, J. R. Cheeseman, G. Scalmani, V. Barone, B. Mennucci, 
 G. A. Petersson, H. Nakatsuji, M. Caricato, X. Li, H. P. Hratchian, 
 A. F. Izmaylov, J. Bloino, G. Zheng, J. L. Sonnenberg, M. Hada, 
 M. Ehara, K. Toyota, R. Fukuda, J. Hasegawa, M. Ishida, T. Nakajima, 
 Y. Honda, O. Kitao, H. Nakai, T. Vreven, J. A. Montgomery, Jr., 
 J. E. Peralta, F. Ogliaro, M. Bearpark, J. J. Heyd, E. Brothers, 
 K. N. Kudin, V. N. Staroverov, R. Kobayashi, J. Normand, 
 K. Raghavachari, A. Rendell, J. C. Burant, S. S. Iyengar, J. Tomasi, 
 M. Cossi, N. Rega, J. M. Millam, M. Klene, J. E. Knox, J. B. Cross, 
 V. Bakken, C. Adamo, J. Jaramillo, R. Gomperts, R. E. Stratmann, 
 O. Yazyev, A. J. Austin, R. Cammi, C. Pomelli, J. W. Ochterski, 
 R. L. Martin, K. Morokuma, V. G. Zakrzewski, G. A. Voth, 
 P. Salvador, J. J. Dannenberg, S. Dapprich, A. D. Daniels, 
 O. Farkas, J. B. Foresman, J. V. Ortiz, J. Cioslowski, 
 and D. J. Fox, Gaussian, Inc., Wallingford CT, 2009.
 
 ******************************************
 Gaussian 09:  EM64L-G09RevA.02 11-Jun-2009
                 5-Dec-2019 
 ******************************************
 %chk=PSI_-160
 %NoSave
 ---------------------------------
 #SP HF/6-31G* Geom=(ModRedundant)
 ---------------------------------
 1/18=120,38=1/1;
 2/12=2,17=6,18=5,40=1/2;
 3/5=1,6=6,7=1,11=9,16=1,25=1,30=1/1,2,3;
 4//1;
 5/5=2,38=5/2;
 6/7=2,8=2,9=2,10=2,28=1/1;
 99/5=1,9=1/99;
 ------------
 paramfit run
 ------------
 Symbolic Z-matrix:
 Charge =  0 Multiplicity = 1
 C-CT--0.3208          0.        0.        0. 
 N-N--0.5622           1.44819   0.        0. 
 C-C-0.8053            2.1232    0.47592   1.07237 
 O-O--0.6151           1.59018   0.69673   2.12445 
 C-CX-0.0839           3.65051   0.59414   0.92154 
 C-CU--0.3230          4.29991   0.65414   2.30809 
 C-CU--0.0657          4.19885  -0.59605   0.08825 
 C-CU--0.0109          3.99637  -2.02978   0.61078 
 C-CU-0.0816           2.6412   -2.70878   0.32952 
 C-CM--0.2354          2.2818   -2.78014  -1.13609 
 C-CM--0.2653          2.43454  -3.80856  -1.95449 
 C-CU-0.1214           3.00746  -5.1663   -1.62579 
 C-CU--0.0354          1.95225  -6.27221  -1.444 
 C-CU--0.0984          1.1173   -6.50811  -2.70976 
 C-CU-0.1300           0.13981  -7.71184  -2.7235 
 C-CU--0.3561         -0.61002  -7.68633  -4.06534 
 N-N--0.7186           0.91565  -8.94059  -2.62463 
 C-C-0.8537            0.31179  -10.15473  -2.46886 
 C-CT--0.3868          1.22517  -11.26621  -2.00502 
 O-O--0.6323          -0.85502  -10.33393  -2.68234 
 C-C-0.7903           -0.77559  -7.61606  -1.48189 
 O-O--0.6136          -0.40084  -8.03319  -0.41911 
 N-N--0.5650          -1.94844  -6.96138  -1.62256 
 C-CT--0.3231         -2.87581  -6.8791   -0.51287 
 N-N--0.7191           3.99742   1.78854   0.13765 
 C-C-0.8539            3.66817   3.05895   0.50825 
 C-CT--0.3903          4.40965   4.15583  -0.22739 
 O-O--0.6290           2.84405   3.29501   1.34565 
 H-H1-0.1459          -0.40326   1.00615   0. 
 H-H1-0.1459          -0.36496  -0.516     0.87594 
 H-H1-0.1459          -0.34566  -0.52209  -0.88335 
 H-H-0.3572            1.90424   0.07091  -0.87936 
 H-HC-0.0997           4.03502  -0.20765   2.90146 
 H-HC-0.0997           5.37978   0.69179   2.19983 
 H-HC-0.0997           3.9687    1.53345   2.84102 
 H-HC-0.0347           5.27145  -0.43142   0.0131 
 H-HC-0.0347           3.80787  -0.51838  -0.9214 
 H-HC-0.0243           4.76778  -2.63765   0.14704 
 H-HC-0.0243           4.186    -2.06576   1.67854 
 H-HC-0.0171           1.85132  -2.19612   0.86304 
 H-HC-0.0171           2.68916  -3.70624   0.75213 
 H-HA-0.1313           1.84801  -1.8825   -1.54621 
 H-HA-0.1359           2.11384  -3.6775   -2.97613 
 H-HC-0.0092           3.60321  -5.1143   -0.72255 
 H-HC-0.0092           3.69069  -5.45582  -2.42327 
 H-HC-0.0318           2.47194  -7.17963  -1.14923 
 H-HC-0.0318           1.30576  -6.01663  -0.61481 
 H-HC-0.0435           1.78161  -6.63914  -3.56126 
 H-HC-0.0435           0.53042  -5.61894  -2.90801 
 H-HC-0.1066           0.10153  -7.86181  -4.86377 
 H-HC-0.1066          -1.06514  -6.71746  -4.24292 
 H-HC-0.1066          -1.36698  -8.4547   -4.11386 
 H-H-0.3529            1.79469  -8.85222  -2.16834 
 H-HC-0.1047           0.78423  -12.21691  -2.2635 
 H-HC-0.1047           1.31959  -11.20825  -0.92481 
 H-HC-0.1047           2.21557  -11.18923  -2.44041 
 H-H-0.3615           -2.32176  -6.85123  -2.53569 
 H-H1-0.1469          -3.68705  -6.21831  -0.78884 
 H-H1-0.1469          -2.37269  -6.47645   0.35394 
 H-H1-0.1469          -3.28049  -7.85203  -0.25325 
 H-H-0.3570            4.78482   1.69325  -0.46441 
 H-HC-0.1060           3.83464   5.06825  -0.16539 
 H-HC-0.1060           4.58703   3.90544  -1.26729 
 H-HC-0.1060           5.36998   4.31928   0.251 
 
 The following ModRedundant input section has been read:
 D    *    3    5    * F                                                       
 Stoichiometry    C20H36N4O4
 Framework group  C1[X(C20H36N4O4)]
 Deg. of freedom   186
 Full point group                 C1      NOp   1
 Largest Abelian subgroup         C1      NOp   1
 Largest concise Abelian subgroup C1      NOp   1
                         Standard orientation:                         
 ---------------------------------------------------------------------
 Center     Atomic      Atomic             Coordinates (Angstroms)
 Number     Number       Type             X           Y           Z
 ---------------------------------------------------------------------
      1          6    20001001       -2.997140    2.593986    0.553959
      2          7    20001014       -3.440025    1.222316    0.413892
      3          6    20001002       -4.362257    0.903197   -0.524064
      4          8    20001024       -4.676181    1.657082   -1.403185
      5          6    90000001       -4.898190   -0.539438   -0.492984
      6          6    90000002       -5.513833   -0.887490   -1.852280
      7          6    90000002       -3.758562   -1.524803   -0.116282
      8          6    90000002       -2.520417   -1.617885   -1.026209
      9          6    90000002       -1.410857   -0.564991   -0.834038
     10          6    20001004       -0.852846   -0.508956    0.568732
     11          6    20001004        0.255768   -1.074100    1.018559
     12          6    90000002        1.237821   -1.916612    0.240418
     13          6    90000002        2.525588   -1.176959   -0.164714
     14          6    90000002        3.327477   -0.677852    1.044741
     15          6    90000002        4.732103   -0.073132    0.787868
     16          6    90000002        5.288501    0.400770    2.140380
     17          7    20001014        5.594021   -1.115326    0.247071
     18          6    20001002        6.849648   -0.836542   -0.209807
     19          6    20001001        7.466817   -1.911852   -1.074454
     20          8    20001024        7.426305    0.182519    0.051201
     21          6    20001002        4.600100    1.044164   -0.271825
     22          8    20001024        4.589845    0.771311   -1.442029
     23          7    20001014        4.396109    2.302861    0.173201
     24          6    20001001        4.314586    3.404028   -0.764342
     25          7    20001014       -5.893118   -0.693859    0.578324
     26          6    20001002       -7.052352    0.021411    0.643415
     27          6    20001001       -8.091274   -0.523800    1.601281
     28          8    20001024       -7.235152    1.016164    0.000614
     29          1    20001035       -3.795013    3.242269    0.897583
     30          1    20001035       -2.641854    2.961746   -0.397486
     31          1    20001035       -2.182728    2.623171    1.266865
     32          1    20001029       -3.414768    0.649836    1.225011
     33          1    20001034       -4.798770   -0.757220   -2.650182
     34          1    20001034       -5.850284   -1.919938   -1.842680
     35          1    20001034       -6.356799   -0.244476   -2.059322
     36          1    20001034       -4.217688   -2.510767   -0.098927
     37          1    20001034       -3.446422   -1.316812    0.902340
     38          1    20001034       -2.078676   -2.593440   -0.845169
     39          1    20001034       -2.824332   -1.613598   -2.067837
     40          1    20001034       -1.778007    0.415497   -1.108280
     41          1    20001034       -0.622646   -0.797898   -1.541364
     42          1    20001033       -1.434930    0.065226    1.271303
     43          1    20001033        0.500661   -0.920716    2.057915
     44          1    20001034        0.772121   -2.303505   -0.657860
     45          1    20001034        1.502226   -2.784836    0.842804
     46          1    20001034        3.120479   -1.855988   -0.769198
     47          1    20001034        2.272737   -0.346775   -0.811003
     48          1    20001034        3.466671   -1.495990    1.748169
     49          1    20001034        2.744637    0.077471    1.558683
     50          1    20001034        5.440079   -0.464266    2.775454
     51          1    20001034        4.586992    1.056139    2.646103
     52          1    20001034        6.236165    0.905555    2.026960
     53          1    20001029        5.125118   -1.841871   -0.243820
     54          1    20001034        8.539598   -1.792685   -1.074565
     55          1    20001034        7.102760   -1.790264   -2.090232
     56          1    20001034        7.207159   -2.908413   -0.734121
     57          1    20001029        4.647911    2.520202    1.108438
     58          1    20001035        4.029748    4.297330   -0.224156
     59          1    20001035        3.565680    3.191090   -1.512956
     60          1    20001035        5.261325    3.576815   -1.265922
     61          1    20001029       -5.889441   -1.573939    1.044150
     62          1    20001034       -8.766992    0.273577    1.874353
     63          1    20001034       -7.644687   -0.946458    2.494293
     64          1    20001034       -8.659543   -1.303473    1.104307
 ---------------------------------------------------------------------
 Rotational constants (GHZ):      0.4307726      0.0496395      0.0477078
 Standard basis: 6-31G(d) (6D, 7F)
 There are   492 symmetry adapted basis functions of A   symmetry.
 Integral buffers will be    131072 words long.
 Raffenetti 1 integral format.
 Two-electron integral symmetry is turned on.
   492 basis functions,   928 primitive gaussians,   492 cartesian basis functions
   108 alpha electrons      108 beta electrons
       nuclear repulsion energy      2695.0802982504 Hartrees.
 NAtoms=   64 NActive=   64 NUniq=   64 SFac= 7.50D-01 NAtFMM=   80 NAOKFM=F Big=T
 One-electron integrals computed using PRISM.
 NBasis=   492 RedAO= T  NBF=   492
 NBsUse=   492 1.00D-06 NBFU=   492
 Harris functional with IExCor=  205 diagonalized for initial guess.
 ExpMin= 1.61D-01 ExpMax= 5.48D+03 ExpMxC= 8.25D+02 IAcc=1 IRadAn=         1 AccDes= 0.00D+00
 HarFok:  IExCor=  205 AccDes= 0.00D+00 IRadAn=         1 IDoV= 1
 ScaDFX=  1.000000  1.000000  1.000000  1.000000
 FoFCou: FMM=F IPFlag=           0 FMFlag=      100000 FMFlg1=           1
         NFxFlg=           0 DoJE=T BraDBF=F KetDBF=T FulRan=T
         Omega=  0.000000  0.000000  1.000000  0.000000  0.000000 ICntrl=     500 IOpCl=  0
         NMat0=    1 NMatS0=    1 NMatT0=    0 NMatD0=    1 NMtDS0=    0 NMtDT0=    0
         I1Cent=           4 NGrid=           0.
 Petite list used in FoFCou.
 Initial guess orbital symmetries:
       Occupied  (A) (A) (A) (A) (A) (A) (A) (A) (A) (A) (A) (A)
                 (A) (A) (A) (A) (A) (A) (A) (A) (A) (A) (A) (A)
                 (A) (A) (A) (A) (A) (A) (A) (A) (A) (A) (A) (A)
                 (A) (A) (A) (A) (A) (A) (A) (A) (A) (A) (A) (A)
                 (A) (A) (A) (A) (A) (A) (A) (A) (A) (A) (A) (A)
                 (A) (A) (A) (A) (A) (A) (A) (A) (A) (A) (A) (A)
                 (A) (A) (A) (A) (A) (A) (A) (A) (A) (A) (A) (A)
                 (A) (A) (A) (A) (A) (A) (A) (A) (A) (A) (A) (A)
                 (A) (A) (A) (A) (A) (A) (A) (A) (A) (A) (A) (A)
       Virtual   (A) (A) (A) (A) (A) (A) (A) (A) (A) (A) (A) (A)
                 (A) (A) (A) (A) (A) (A) (A) (A) (A) (A) (A) (A)
                 (A) (A) (A) (A) (A) (A) (A) (A) (A) (A) (A) (A)
                 (A) (A) (A) (A) (A) (A) (A) (A) (A) (A) (A) (A)
                 (A) (A) (A) (A) (A) (A) (A) (A) (A) (A) (A) (A)
                 (A) (A) (A) (A) (A) (A) (A) (A) (A) (A) (A) (A)
                 (A) (A) (A) (A) (A) (A) (A) (A) (A) (A) (A) (A)
                 (A) (A) (A) (A) (A) (A) (A) (A) (A) (A) (A) (A)
                 (A) (A) (A) (A) (A) (A) (A) (A) (A) (A) (A) (A)
                 (A) (A) (A) (A) (A) (A) (A) (A) (A) (A) (A) (A)
                 (A) (A) (A) (A) (A) (A) (A) (A) (A) (A) (A) (A)
                 (A) (A) (A) (A) (A) (A) (A) (A) (A) (A) (A) (A)
                 (A) (A) (A) (A) (A) (A) (A) (A) (A) (A) (A) (A)
                 (A) (A) (A) (A) (A) (A) (A) (A) (A) (A) (A) (A)
                 (A) (A) (A) (A) (A) (A) (A) (A) (A) (A) (A) (A)
                 (A) (A) (A) (A) (A) (A) (A) (A) (A) (A) (A) (A)
                 (A) (A) (A) (A) (A) (A) (A) (A) (A) (A) (A) (A)
                 (A) (A) (A) (A) (A) (A) (A) (A) (A) (A) (A) (A)
                 (A) (A) (A) (A) (A) (A) (A) (A) (A) (A) (A) (A)
                 (A) (A) (A) (A) (A) (A) (A) (A) (A) (A) (A) (A)
                 (A) (A) (A) (A) (A) (A) (A) (A) (A) (A) (A) (A)
                 (A) (A) (A) (A) (A) (A) (A) (A) (A) (A) (A) (A)
                 (A) (A) (A) (A) (A) (A) (A) (A) (A) (A) (A) (A)
                 (A) (A) (A) (A) (A) (A) (A) (A) (A) (A) (A) (A)
                 (A) (A) (A) (A) (A) (A) (A) (A) (A) (A) (A) (A)
                 (A) (A) (A) (A) (A) (A) (A) (A) (A) (A) (A) (A)
                 (A) (A) (A) (A) (A) (A) (A) (A) (A) (A) (A) (A)
                 (A) (A) (A) (A) (A) (A) (A) (A) (A) (A) (A) (A)
                 (A) (A) (A) (A) (A) (A) (A) (A) (A) (A) (A) (A)
                 (A) (A) (A) (A) (A) (A) (A) (A) (A) (A) (A) (A)
                 (A) (A) (A) (A) (A) (A) (A) (A) (A) (A) (A) (A)
                 (A) (A) (A) (A) (A) (A) (A) (A) (A) (A) (A) (A)
 The electronic state of the initial guess is 1-A.
 Requested convergence on RMS density matrix=1.00D-08 within 128 cycles.
 Requested convergence on MAX density matrix=1.00D-06.
 Requested convergence on             energy=1.00D-06.
 No special actions if energy rises.
 Integral accuracy reduced to 1.0D-05 until final iterations.
 Initial convergence to 1.0D-05 achieved.  Increase integral accuracy.
 SCF Done:  E(RHF) =  -1295.60285280     A.U. after   14 cycles
             Convg  =    0.7981D-08             -V/T =  2.0012

 **********************************************************************

            Population analysis using the SCF density.

 **********************************************************************

 Orbital symmetries:
       Occupied  (A) (A) (A) (A) (A) (A) (A) (A) (A) (A) (A) (A)
                 (A) (A) (A) (A) (A) (A) (A) (A) (A) (A) (A) (A)
                 (A) (A) (A) (A) (A) (A) (A) (A) (A) (A) (A) (A)
                 (A) (A) (A) (A) (A) (A) (A) (A) (A) (A) (A) (A)
                 (A) (A) (A) (A) (A) (A) (A) (A) (A) (A) (A) (A)
                 (A) (A) (A) (A) (A) (A) (A) (A) (A) (A) (A) (A)
                 (A) (A) (A) (A) (A) (A) (A) (A) (A) (A) (A) (A)
                 (A) (A) (A) (A) (A) (A) (A) (A) (A) (A) (A) (A)
                 (A) (A) (A) (A) (A) (A) (A) (A) (A) (A) (A) (A)
       Virtual   (A) (A) (A) (A) (A) (A) (A) (A) (A) (A) (A) (A)
                 (A) (A) (A) (A) (A) (A) (A) (A) (A) (A) (A) (A)
                 (A) (A) (A) (A) (A) (A) (A) (A) (A) (A) (A) (A)
                 (A) (A) (A) (A) (A) (A) (A) (A) (A) (A) (A) (A)
                 (A) (A) (A) (A) (A) (A) (A) (A) (A) (A) (A) (A)
                 (A) (A) (A) (A) (A) (A) (A) (A) (A) (A) (A) (A)
                 (A) (A) (A) (A) (A) (A) (A) (A) (A) (A) (A) (A)
                 (A) (A) (A) (A) (A) (A) (A) (A) (A) (A) (A) (A)
                 (A) (A) (A) (A) (A) (A) (A) (A) (A) (A) (A) (A)
                 (A) (A) (A) (A) (A) (A) (A) (A) (A) (A) (A) (A)
                 (A) (A) (A) (A) (A) (A) (A) (A) (A) (A) (A) (A)
                 (A) (A) (A) (A) (A) (A) (A) (A) (A) (A) (A) (A)
                 (A) (A) (A) (A) (A) (A) (A) (A) (A) (A) (A) (A)
                 (A) (A) (A) (A) (A) (A) (A) (A) (A) (A) (A) (A)
                 (A) (A) (A) (A) (A) (A) (A) (A) (A) (A) (A) (A)
                 (A) (A) (A) (A) (A) (A) (A) (A) (A) (A) (A) (A)
                 (A) (A) (A) (A) (A) (A) (A) (A) (A) (A) (A) (A)
                 (A) (A) (A) (A) (A) (A) (A) (A) (A) (A) (A) (A)
                 (A) (A) (A) (A) (A) (A) (A) (A) (A) (A) (A) (A)
                 (A) (A) (A) (A) (A) (A) (A) (A) (A) (A) (A) (A)
                 (A) (A) (A) (A) (A) (A) (A) (A) (A) (A) (A) (A)
                 (A) (A) (A) (A) (A) (A) (A) (A) (A) (A) (A) (A)
                 (A) (A) (A) (A) (A) (A) (A) (A) (A) (A) (A) (A)
                 (A) (A) (A) (A) (A) (A) (A) (A) (A) (A) (A) (A)
                 (A) (A) (A) (A) (A) (A) (A) (A) (A) (A) (A) (A)
                 (A) (A) (A) (A) (A) (A) (A) (A) (A) (A) (A) (A)
                 (A) (A) (A) (A) (A) (A) (A) (A) (A) (A) (A) (A)
                 (A) (A) (A) (A) (A) (A) (A) (A) (A) (A) (A) (A)
                 (A) (A) (A) (A) (A) (A) (A) (A) (A) (A) (A) (A)
                 (A) (A) (A) (A) (A) (A) (A) (A) (A) (A) (A) (A)
                 (A) (A) (A) (A) (A) (A) (A) (A) (A) (A) (A) (A)
                 (A) (A) (A) (A) (A) (A) (A) (A) (A) (A) (A) (A)
 The electronic state is 1-A.
 Alpha  occ. eigenvalues --  -20.52399 -20.52267 -20.51868 -20.51648 -15.59024
 Alpha  occ. eigenvalues --  -15.58169 -15.57836 -15.57773 -11.34973 -11.34474
 Alpha  occ. eigenvalues --  -11.33953 -11.33598 -11.28907 -11.28856 -11.25355
 Alpha  occ. eigenvalues --  -11.25231 -11.24272 -11.23759 -11.23626 -11.23217
 Alpha  occ. eigenvalues --  -11.23049 -11.22950 -11.22772 -11.22759 -11.22707
 Alpha  occ. eigenvalues --  -11.22240 -11.22062 -11.20707  -1.39613  -1.39547
 Alpha  occ. eigenvalues --   -1.38339  -1.38266  -1.24739  -1.23805  -1.22880
 Alpha  occ. eigenvalues --   -1.22703  -1.11245  -1.09506  -1.07471  -1.04424
 Alpha  occ. eigenvalues --   -1.01258  -0.99220  -0.98842  -0.95874  -0.95417
 Alpha  occ. eigenvalues --   -0.94843  -0.92536  -0.87362  -0.86030  -0.83453
 Alpha  occ. eigenvalues --   -0.81516  -0.79741  -0.78646  -0.77518  -0.77136
 Alpha  occ. eigenvalues --   -0.72328  -0.71542  -0.70860  -0.68534  -0.68251
 Alpha  occ. eigenvalues --   -0.67276  -0.65696  -0.64771  -0.64097  -0.63972
 Alpha  occ. eigenvalues --   -0.62586  -0.62397  -0.61889  -0.61642  -0.61393
 Alpha  occ. eigenvalues --   -0.60741  -0.59874  -0.59397  -0.58929  -0.58418
 Alpha  occ. eigenvalues --   -0.58119  -0.57820  -0.56726  -0.56572  -0.56418
 Alpha  occ. eigenvalues --   -0.55796  -0.55184  -0.55028  -0.54920  -0.54247
 Alpha  occ. eigenvalues --   -0.53386  -0.53032  -0.52505  -0.51890  -0.51667
 Alpha  occ. eigenvalues --   -0.50553  -0.50302  -0.50012  -0.49717  -0.48922
 Alpha  occ. eigenvalues --   -0.48685  -0.47283  -0.46787  -0.45184  -0.42469
 Alpha  occ. eigenvalues --   -0.41771  -0.41289  -0.40764  -0.39096  -0.38759
 Alpha  occ. eigenvalues --   -0.38555  -0.38304  -0.35190
 Alpha virt. eigenvalues --    0.16491   0.19334   0.19413   0.20001   0.20333
 Alpha virt. eigenvalues --    0.21332   0.21577   0.21803   0.22907   0.23521
 Alpha virt. eigenvalues --    0.25129   0.25345   0.26053   0.26872   0.27408
 Alpha virt. eigenvalues --    0.27497   0.27911   0.28705   0.29353   0.29695
 Alpha virt. eigenvalues --    0.30090   0.30346   0.30962   0.31175   0.31711
 Alpha virt. eigenvalues --    0.32018   0.32214   0.33073   0.33328   0.33453
 Alpha virt. eigenvalues --    0.33866   0.34219   0.34559   0.35041   0.35209
 Alpha virt. eigenvalues --    0.35591   0.35821   0.36626   0.37153   0.37669
 Alpha virt. eigenvalues --    0.38623   0.39031   0.39106   0.39758   0.39995
 Alpha virt. eigenvalues --    0.40330   0.41600   0.41785   0.42362   0.43637
 Alpha virt. eigenvalues --    0.44326   0.44587   0.44985   0.46160   0.46273
 Alpha virt. eigenvalues --    0.47157   0.48894   0.49331   0.51796   0.52804
 Alpha virt. eigenvalues --    0.53643   0.54765   0.57493   0.59239   0.60096
 Alpha virt. eigenvalues --    0.61903   0.63638   0.64279   0.69067   0.69741
 Alpha virt. eigenvalues --    0.70114   0.70944   0.71325   0.71969   0.72645
 Alpha virt. eigenvalues --    0.73396   0.74620   0.75139   0.75687   0.76292
 Alpha virt. eigenvalues --    0.77216   0.77375   0.77886   0.78323   0.78740
 Alpha virt. eigenvalues --    0.79341   0.80075   0.80555   0.81310   0.81883
 Alpha virt. eigenvalues --    0.83567   0.83909   0.85076   0.85407   0.86051
 Alpha virt. eigenvalues --    0.87020   0.87955   0.88653   0.89809   0.90529
 Alpha virt. eigenvalues --    0.91536   0.92185   0.92643   0.93316   0.93950
 Alpha virt. eigenvalues --    0.94763   0.96105   0.96770   0.97278   0.97976
 Alpha virt. eigenvalues --    0.98501   0.99177   0.99908   1.00409   1.00669
 Alpha virt. eigenvalues --    1.01104   1.01788   1.01882   1.02626   1.03570
 Alpha virt. eigenvalues --    1.03906   1.04799   1.06144   1.07069   1.07320
 Alpha virt. eigenvalues --    1.08075   1.08310   1.09404   1.10130   1.11316
 Alpha virt. eigenvalues --    1.12514   1.12938   1.13173   1.13879   1.14087
 Alpha virt. eigenvalues --    1.14198   1.14656   1.14908   1.15449   1.15666
 Alpha virt. eigenvalues --    1.15745   1.16218   1.16723   1.17486   1.17755
 Alpha virt. eigenvalues --    1.18001   1.18893   1.18921   1.19286   1.19495
 Alpha virt. eigenvalues --    1.19653   1.20344   1.20533   1.21232   1.21457
 Alpha virt. eigenvalues --    1.21624   1.22095   1.22522   1.23106   1.23376
 Alpha virt. eigenvalues --    1.23580   1.24181   1.24658   1.25606   1.25766
 Alpha virt. eigenvalues --    1.26269   1.27008   1.27553   1.28888   1.28949
 Alpha virt. eigenvalues --    1.29482   1.30379   1.30976   1.31368   1.32468
 Alpha virt. eigenvalues --    1.33056   1.33986   1.35259   1.35504   1.37299
 Alpha virt. eigenvalues --    1.37707   1.38603   1.40660   1.41833   1.43666
 Alpha virt. eigenvalues --    1.44271   1.45985   1.47307   1.47953   1.48888
 Alpha virt. eigenvalues --    1.49263   1.50720   1.53031   1.54069   1.54845
 Alpha virt. eigenvalues --    1.56096   1.58283   1.59501   1.59928   1.60903
 Alpha virt. eigenvalues --    1.62001   1.64079   1.66001   1.67318   1.69551
 Alpha virt. eigenvalues --    1.70643   1.70898   1.72317   1.73628   1.74481
 Alpha virt. eigenvalues --    1.75520   1.76445   1.77421   1.78340   1.79940
 Alpha virt. eigenvalues --    1.80377   1.81913   1.83661   1.86631   1.89228
 Alpha virt. eigenvalues --    1.89561   1.90693   1.91560   1.92684   1.93359
 Alpha virt. eigenvalues --    1.95677   1.97396   1.98243   1.99455   2.01453
 Alpha virt. eigenvalues --    2.03600   2.04446   2.06485   2.07331   2.08321
 Alpha virt. eigenvalues --    2.09265   2.10544   2.11387   2.12069   2.12267
 Alpha virt. eigenvalues --    2.13672   2.14002   2.15228   2.16021   2.16644
 Alpha virt. eigenvalues --    2.17154   2.17864   2.18803   2.19578   2.20000
 Alpha virt. eigenvalues --    2.20380   2.21472   2.22220   2.22420   2.22986
 Alpha virt. eigenvalues --    2.24835   2.24967   2.25744   2.26075   2.27256
 Alpha virt. eigenvalues --    2.27958   2.28692   2.30533   2.31394   2.31831
 Alpha virt. eigenvalues --    2.32579   2.33347   2.33915   2.35702   2.36533
 Alpha virt. eigenvalues --    2.36658   2.37020   2.37584   2.38546   2.39140
 Alpha virt. eigenvalues --    2.39207   2.40696   2.41697   2.43211   2.44372
 Alpha virt. eigenvalues --    2.45537   2.46997   2.48400   2.48754   2.50524
 Alpha virt. eigenvalues --    2.51596   2.51995   2.54435   2.54617   2.55874
 Alpha virt. eigenvalues --    2.56972   2.57491   2.58046   2.59022   2.60881
 Alpha virt. eigenvalues --    2.62290   2.62941   2.64059   2.64482   2.65175
 Alpha virt. eigenvalues --    2.67919   2.68927   2.69959   2.70248   2.71462
 Alpha virt. eigenvalues --    2.72749   2.73074   2.74226   2.75267   2.76188
 Alpha virt. eigenvalues --    2.77537   2.78700   2.79132   2.79294   2.80038
 Alpha virt. eigenvalues --    2.81458   2.81940   2.83751   2.84642   2.86086
 Alpha virt. eigenvalues --    2.87565   2.89840   2.90899   2.92962   2.95563
 Alpha virt. eigenvalues --    2.96804   2.97849   2.98355   3.00669   3.01637
 Alpha virt. eigenvalues --    3.02495   3.03049   3.05149   3.05847   3.07617
 Alpha virt. eigenvalues --    3.10741   3.11082   3.12883   3.14097   3.15463
 Alpha virt. eigenvalues --    3.16540   3.18261   3.22635   3.30334   3.32498
 Alpha virt. eigenvalues --    3.33505   3.34147   3.39471   3.40291   3.40979
 Alpha virt. eigenvalues --    3.42454   3.43941   3.55000   3.55459   3.57345
 Alpha virt. eigenvalues --    3.57523   4.38178   4.42269   4.44323   4.48925
 Alpha virt. eigenvalues --    4.49993   4.51680   4.56485   4.58587   4.61298
 Alpha virt. eigenvalues --    4.62764   4.65967   4.67196   4.69223   4.69893
 Alpha virt. eigenvalues --    4.74059   4.76837   4.78108   4.82988   4.84397
 Alpha virt. eigenvalues --    4.89071   4.93063   4.93740   4.96823   5.00154
 Alpha virt. eigenvalues --    5.03262   5.06248   5.23159   5.23765
          Condensed to atoms (all electrons):
 Mulliken atomic charges:
              1
     1  C   -0.278193
     2  N   -0.804138
     3  C    0.824151
     4  O   -0.598225
     5  C    0.085545
     6  C   -0.466572
     7  C   -0.337886
     8  C   -0.315593
     9  C   -0.351148
    10  C   -0.165359
    11  C   -0.174590
    12  C   -0.354331
    13  C   -0.310991
    14  C   -0.329291
    15  C    0.091196
    16  C   -0.509622
    17  N   -0.787548
    18  C    0.767231
    19  C   -0.595784
    20  O   -0.613447
    21  C    0.820338
    22  O   -0.639190
    23  N   -0.806397
    24  C   -0.275736
    25  N   -0.823985
    26  C    0.746290
    27  C   -0.588955
    28  O   -0.579772
    29  H    0.184732
    30  H    0.202961
    31  H    0.163873
    32  H    0.383750
    33  H    0.177337
    34  H    0.142206
    35  H    0.230049
    36  H    0.165196
    37  H    0.160575
    38  H    0.168064
    39  H    0.178402
    40  H    0.203924
    41  H    0.175140
    42  H    0.153890
    43  H    0.171445
    44  H    0.177958
    45  H    0.162218
    46  H    0.152811
    47  H    0.199139
    48  H    0.173915
    49  H    0.183816
    50  H    0.183978
    51  H    0.148056
    52  H    0.227435
    53  H    0.389647
    54  H    0.211801
    55  H    0.209544
    56  H    0.176434
    57  H    0.395601
    58  H    0.165278
    59  H    0.198937
    60  H    0.185943
    61  H    0.378540
    62  H    0.218166
    63  H    0.174622
    64  H    0.196619
 Sum of Mulliken atomic charges =   0.00000
 Mulliken charges with hydrogens summed into heavy atoms:
              1
     1  C    0.273373
     2  N   -0.420389
     3  C    0.824151
     4  O   -0.598225
     5  C    0.085545
     6  C    0.083021
     7  C   -0.012115
     8  C    0.030873
     9  C    0.027917
    10  C   -0.011469
    11  C   -0.003146
    12  C   -0.014155
    13  C    0.040959
    14  C    0.028440
    15  C    0.091196
    16  C    0.049847
    17  N   -0.397901
    18  C    0.767231
    19  C    0.001996
    20  O   -0.613447
    21  C    0.820338
    22  O   -0.639190
    23  N   -0.410796
    24  C    0.274422
    25  N   -0.445445
    26  C    0.746290
    27  C    0.000453
    28  O   -0.579772
 Sum of Mulliken charges with hydrogens summed into heavy atoms =   0.00000
 Electronic spatial extent (au):  <R**2>=          21879.0553
 Charge=              0.0000 electrons
 Dipole moment (field-independent basis, Debye):
    X=             -0.4336    Y=             -5.4197    Z=              5.8636  Tot=              7.9964
 Quadrupole moment (field-independent basis, Debye-Ang):
   XX=           -212.4707   YY=           -159.7280   ZZ=           -171.2929
   XY=             21.4371   XZ=            -15.7634   YZ=             10.1525
 Traceless Quadrupole moment (field-independent basis, Debye-Ang):
   XX=            -31.3068   YY=             21.4358   ZZ=              9.8710
   XY=             21.4371   XZ=            -15.7634   YZ=             10.1525
 Octapole moment (field-independent basis, Debye-Ang**2):
  XXX=           -158.7058  YYY=             39.9585  ZZZ=             11.1258  XYY=             80.9526
  XXY=           -283.3121  XXZ=            150.4600  XZZ=             -8.0420  YZZ=             -0.5658
  YYZ=              7.3778  XYZ=              5.3302
 Hexadecapole moment (field-independent basis, Debye-Ang**3):
 XXXX=         -27600.2810 YYYY=          -2218.8679 ZZZZ=          -1261.7320 XXXY=            653.5278
 XXXZ=          -1026.3482 YYYX=            132.9890 YYYZ=             10.4401 ZZZX=            -27.1768
 ZZZY=             10.8753 XXYY=          -4347.6797 XXZZ=          -4312.5020 YYZZ=           -599.8267
 XXYZ=            246.8264 YYXZ=            -85.7877 ZZXY=             27.1322
 N-N= 2.695080298250D+03 E-N=-8.421956630988D+03  KE= 1.294068941486D+03
 1\1\GINC-MOSURA\SP\RHF\6-31G(d)\C20H36N4O4\MARIE\05-Dec-2019\0\\#SP HF
 /6-31G* Geom=(ModRedundant)\\paramfit run\\0,1\C,0,0.,0.,0.\N,0,1.4481
 87,0.,0.\C,0,2.1232,0.47592,1.072365\O,0,1.590179,0.696732,2.124447\C,
 0,3.650505,0.594143,0.921539\C,0,4.299913,0.654135,2.308086\C,0,4.1988
 51,-0.596045,0.08825\C,0,3.996372,-2.029782,0.610776\C,0,2.641196,-2.7
 08775,0.32952\C,0,2.281796,-2.780137,-1.136092\C,0,2.434537,-3.808556,
 -1.954494\C,0,3.007462,-5.1663,-1.625793\C,0,1.952248,-6.272211,-1.444
 002\C,0,1.117301,-6.508105,-2.709755\C,0,0.139813,-7.711838,-2.723496\
 C,0,-0.610021,-7.686329,-4.065341\N,0,0.915654,-8.940588,-2.624628\C,0
 ,0.311792,-10.154732,-2.468863\C,0,1.225172,-11.266213,-2.005018\O,0,-
 0.855023,-10.33393,-2.682342\C,0,-0.775588,-7.616062,-1.481887\O,0,-0.
 400835,-8.033189,-0.41911\N,0,-1.948438,-6.961376,-1.622558\C,0,-2.875
 814,-6.879104,-0.51287\N,0,3.997421,1.788544,0.137647\C,0,3.668165,3.0
 58945,0.508246\C,0,4.409649,4.155835,-0.227385\O,0,2.844046,3.29501,1.
 345648\H,0,-0.403259,1.006147,0.\H,0,-0.36496,-0.516002,0.875939\H,0,-
 0.345658,-0.522086,-0.883346\H,0,1.904244,0.070913,-0.879357\H,0,4.035
 017,-0.207645,2.901464\H,0,5.379775,0.691794,2.199831\H,0,3.968695,1.5
 33454,2.84102\H,0,5.271452,-0.431416,0.013101\H,0,3.807871,-0.518376,-
 0.921395\H,0,4.767779,-2.637648,0.147043\H,0,4.186,-2.065756,1.67854\H
 ,0,1.85132,-2.196115,0.863036\H,0,2.689158,-3.706239,0.752128\H,0,1.84
 8013,-1.8825,-1.546205\H,0,2.113838,-3.677495,-2.976128\H,0,3.603214,-
 5.114295,-0.722554\H,0,3.69069,-5.455825,-2.423269\H,0,2.471935,-7.179
 63,-1.149227\H,0,1.305763,-6.016626,-0.614808\H,0,1.781608,-6.639141,-
 3.56126\H,0,0.530423,-5.618937,-2.90801\H,0,0.10153,-7.861811,-4.86376
 6\H,0,-1.06514,-6.717457,-4.242918\H,0,-1.366981,-8.454702,-4.113858\H
 ,0,1.79469,-8.852216,-2.168341\H,0,0.784233,-12.216908,-2.263496\H,0,1
 .319589,-11.208246,-0.924809\H,0,2.21557,-11.189231,-2.440411\H,0,-2.3
 21757,-6.851234,-2.535691\H,0,-3.687054,-6.218308,-0.788841\H,0,-2.372
 691,-6.476445,0.353939\H,0,-3.280492,-7.852032,-0.253252\H,0,4.784822,
 1.693251,-0.464405\H,0,3.83464,5.068246,-0.165386\H,0,4.587029,3.90544
 3,-1.267285\H,0,5.369982,4.319279,0.250996\\Version=EM64L-G09RevA.02\S
 tate=1-A\HF=-1295.6028528\RMSD=7.981e-09\Dipole=1.8486414,0.2902193,-2
 .5289972\Quadrupole=22.1120367,-17.7400984,-4.3719383,-0.5071625,2.091
 2265,-21.3807395\PG=C01 [X(C20H36N4O4)]\\@


 ON INDUCTION, OR "WHY DO YOU BELIEVE THE SUN WILL RISE TOMORROW?":

 ... THE FARMER WHO HAS FED THE CHICKEN EVERY DAY THROUGHOUT ITS
 LIFE AT LAST WRINGS ITS NECK INSTEAD, SHOWING THAT MORE REFINED VIEWS
 AS TO THE UNIFORMITY OF NATURE WOULD HAVE BEEN USEFUL TO THE CHICKEN.

                               -- BERTRAND RUSSELL
 Job cpu time:  0 days  0 hours  5 minutes 34.9 seconds.
 File lengths (MBytes):  RWF=    132 Int=      0 D2E=      0 Chk=     10 Scr=      1
 Normal termination of Gaussian 09 at Thu Dec  5 16:10:39 2019.
