 Entering Gaussian System, Link 0=g09
 Input=PSI_-180.gau
 Output=PSI_-180.log
 Initial command:
 /home/marie/Utilities//g09/l1.exe /tmp/g09/Gau-2141.inp -scrdir=/tmp/g09/
 Entering Link 1 = /home/marie/Utilities//g09/l1.exe PID=      2167.
  
 Copyright (c) 1988,1990,1992,1993,1995,1998,2003,2009, Gaussian, Inc.
                  All Rights Reserved.
  
 This is part of the Gaussian(R) 09 program.  It is based on
 the Gaussian(R) 03 system (copyright 2003, Gaussian, Inc.),
 the Gaussian(R) 98 system (copyright 1998, Gaussian, Inc.),
 the Gaussian(R) 94 system (copyright 1995, Gaussian, Inc.),
 the Gaussian 92(TM) system (copyright 1992, Gaussian, Inc.),
 the Gaussian 90(TM) system (copyright 1990, Gaussian, Inc.),
 the Gaussian 88(TM) system (copyright 1988, Gaussian, Inc.),
 the Gaussian 86(TM) system (copyright 1986, Carnegie Mellon
 University), and the Gaussian 82(TM) system (copyright 1983,
 Carnegie Mellon University). Gaussian is a federally registered
 trademark of Gaussian, Inc.
  
 This software contains proprietary and confidential information,
 including trade secrets, belonging to Gaussian, Inc.
  
 This software is provided under written license and may be
 used, copied, transmitted, or stored only in accord with that
 written license.
  
 The following legend is applicable only to US Government
 contracts under FAR:
  
                    RESTRICTED RIGHTS LEGEND
  
 Use, reproduction and disclosure by the US Government is
 subject to restrictions as set forth in subparagraphs (a)
 and (c) of the Commercial Computer Software - Restricted
 Rights clause in FAR 52.227-19.
  
 Gaussian, Inc.
 340 Quinnipiac St., Bldg. 40, Wallingford CT 06492
  
  
 ---------------------------------------------------------------
 Warning -- This program may not be used in any manner that
 competes with the business of Gaussian, Inc. or will provide
 assistance to any competitor of Gaussian, Inc.  The licensee
 of this program is prohibited from giving any competitor of
 Gaussian, Inc. access to this program.  By using this program,
 the user acknowledges that Gaussian, Inc. is engaged in the
 business of creating and licensing software in the field of
 computational chemistry and represents and warrants to the
 licensee that it is not a competitor of Gaussian, Inc. and that
 it will not use this program in any manner prohibited above.
 ---------------------------------------------------------------
  

 Cite this work as:
 Gaussian 09, Revision A.02,
 M. J. Frisch, G. W. Trucks, H. B. Schlegel, G. E. Scuseria, 
 M. A. Robb, J. R. Cheeseman, G. Scalmani, V. Barone, B. Mennucci, 
 G. A. Petersson, H. Nakatsuji, M. Caricato, X. Li, H. P. Hratchian, 
 A. F. Izmaylov, J. Bloino, G. Zheng, J. L. Sonnenberg, M. Hada, 
 M. Ehara, K. Toyota, R. Fukuda, J. Hasegawa, M. Ishida, T. Nakajima, 
 Y. Honda, O. Kitao, H. Nakai, T. Vreven, J. A. Montgomery, Jr., 
 J. E. Peralta, F. Ogliaro, M. Bearpark, J. J. Heyd, E. Brothers, 
 K. N. Kudin, V. N. Staroverov, R. Kobayashi, J. Normand, 
 K. Raghavachari, A. Rendell, J. C. Burant, S. S. Iyengar, J. Tomasi, 
 M. Cossi, N. Rega, J. M. Millam, M. Klene, J. E. Knox, J. B. Cross, 
 V. Bakken, C. Adamo, J. Jaramillo, R. Gomperts, R. E. Stratmann, 
 O. Yazyev, A. J. Austin, R. Cammi, C. Pomelli, J. W. Ochterski, 
 R. L. Martin, K. Morokuma, V. G. Zakrzewski, G. A. Voth, 
 P. Salvador, J. J. Dannenberg, S. Dapprich, A. D. Daniels, 
 O. Farkas, J. B. Foresman, J. V. Ortiz, J. Cioslowski, 
 and D. J. Fox, Gaussian, Inc., Wallingford CT, 2009.
 
 ******************************************
 Gaussian 09:  EM64L-G09RevA.02 11-Jun-2009
                 5-Dec-2019 
 ******************************************
 %chk=PSI_-180
 %NoSave
 ---------------------------------
 #SP HF/6-31G* Geom=(ModRedundant)
 ---------------------------------
 1/18=120,38=1/1;
 2/12=2,17=6,18=5,40=1/2;
 3/5=1,6=6,7=1,11=9,16=1,25=1,30=1/1,2,3;
 4//1;
 5/5=2,38=5/2;
 6/7=2,8=2,9=2,10=2,28=1/1;
 99/5=1,9=1/99;
 ------------
 paramfit run
 ------------
 Symbolic Z-matrix:
 Charge =  0 Multiplicity = 1
 C-CT--0.3208          0.        0.        0. 
 N-N--0.5622           1.44819   0.        0. 
 C-C-0.8053            2.1232    0.47592   1.07237 
 O-O--0.6151           1.59018   0.69673   2.12445 
 C-CX-0.0839           3.65051   0.59414   0.92154 
 C-CU--0.3230          4.25302   1.14519   2.21814 
 C-CU--0.0657          4.25953  -0.7862    0.55365 
 C-CU--0.0109          4.08191  -1.96461   1.52804 
 C-CU-0.0816           2.75667  -2.74986   1.46666 
 C-CM--0.2354          2.44677  -3.32735   0.1055 
 C-CM--0.2653          2.6554   -4.56565  -0.31143 
 C-CU-0.1214           3.25649  -5.70876   0.47071 
 C-CU--0.0354          2.2284   -6.72698   0.99591 
 C-CU--0.0984          1.44173  -7.40951  -0.13112 
 C-CU-0.1300           0.5004   -8.58299   0.24506 
 C-CU--0.3561         -0.20636  -9.04234  -1.04061 
 N-N--0.7186           1.30787  -9.675     0.7714 
 C-C-0.8537            0.73468  -10.78658   1.31812 
 C-CT--0.3868          1.66444  -11.63942   2.1506 
 O-O--0.6323          -0.41901  -11.07185   1.15448 
 C-C-0.7903           -0.45681  -8.10705   1.36129 
 O-O--0.6136          -0.10449  -8.12471   2.50998 
 N-N--0.5650          -1.64298  -7.58399   0.98261 
 C-CT--0.3231         -2.60752  -7.16591   1.97914 
 N-N--0.7191           3.98775   1.46449  -0.21433 
 C-C-0.8539            3.61015   2.77178  -0.30428 
 C-CT--0.3903          4.34286   3.58186  -1.35358 
 O-O--0.6290           2.75307   3.24609   0.38607 
 H-H1-0.1459          -0.40326   1.00615   0. 
 H-H1-0.1459          -0.36496  -0.516     0.87594 
 H-H1-0.1459          -0.34566  -0.52209  -0.88335 
 H-H-0.3572            1.90424   0.07091  -0.87936 
 H-HC-0.0997           3.99422   0.52608   3.06351 
 H-HC-0.0997           5.33426   1.18506   2.12558 
 H-HC-0.0997           3.87956   2.13979   2.41368 
 H-HC-0.0347           5.32878  -0.61603   0.44894 
 H-HC-0.0347           3.89911  -1.07026  -0.43006 
 H-HC-0.0243           4.88507  -2.6638    1.31431 
 H-HC-0.0243           4.23809  -1.62933   2.54812 
 H-HC-0.0171           1.93557  -2.11722   1.77798 
 H-HC-0.0171           2.81985  -3.54247   2.20396 
 H-HA-0.1313           2.00061  -2.63904  -0.594 
 H-HA-0.1359           2.36404  -4.8009   -1.32312 
 H-HC-0.0092           3.82116  -5.33106   1.31448 
 H-HC-0.0092           3.97307  -6.22516  -0.16681 
 H-HC-0.0318           2.76437  -7.46029   1.59204 
 H-HC-0.0318           1.54848  -6.23033   1.67554 
 H-HC-0.0435           2.13656  -7.79596  -0.87368 
 H-HC-0.0435           0.83605  -6.66321  -0.63166 
 H-HC-0.1066           0.53526  -9.45078  -1.71719 
 H-HC-0.1066          -0.68336  -8.20908  -1.5461 
 H-HC-0.1066          -0.93883  -9.80994  -0.84057 
 H-H-0.3529            2.16887  -9.40379   1.18834 
 H-HC-0.1047           1.25971  -12.63752   2.22162 
 H-HC-0.1047           1.72238  -11.21524   3.14851 
 H-HC-0.1047           2.66568  -11.67686   1.73526 
 H-H-0.3615           -1.98979  -7.80414   0.07898 
 H-H1-0.1469          -3.42824  -6.66917   1.47855 
 H-H1-0.1469          -2.14436  -6.47445   2.66761 
 H-H1-0.1469          -2.99203  -8.00794   2.54561 
 H-H-0.3570            4.79651   1.20088  -0.73197 
 H-HC-0.1060           3.74002   4.43867  -1.61707 
 H-HC-0.1060           4.56073   3.00081  -2.24266 
 H-HC-0.1060           5.2822    3.93423  -0.93972 
 
 The following ModRedundant input section has been read:
 D    *    3    5    * F                                                       
 Stoichiometry    C20H36N4O4
 Framework group  C1[X(C20H36N4O4)]
 Deg. of freedom   186
 Full point group                 C1      NOp   1
 Largest Abelian subgroup         C1      NOp   1
 Largest concise Abelian subgroup C1      NOp   1
                         Standard orientation:                         
 ---------------------------------------------------------------------
 Center     Atomic      Atomic             Coordinates (Angstroms)
 Number     Number       Type             X           Y           Z
 ---------------------------------------------------------------------
      1          6    20001001       -3.384307    2.748824    0.617614
      2          7    20001014       -3.771997    1.355034    0.552114
      3          6    20001002       -4.344016    0.865651   -0.572790
      4          8    20001024       -4.348598    1.469477   -1.609669
      5          6    90000001       -4.875884   -0.576858   -0.497492
      6          6    90000002       -5.486872   -0.969532   -1.846692
      7          6    90000002       -3.734446   -1.546446   -0.086861
      8          6    90000002       -2.493600   -1.664592   -0.990176
      9          6    90000002       -1.387590   -0.602873   -0.828524
     10          6    20001004       -0.833510   -0.500865    0.573214
     11          6    20001004        0.275511   -1.048225    1.043562
     12          6    90000002        1.262065   -1.912012    0.295005
     13          6    90000002        2.548787   -1.181736   -0.129976
     14          6    90000002        3.345987   -0.642270    1.065165
     15          6    90000002        4.749555   -0.041825    0.792938
     16          6    90000002        5.300958    0.476246    2.131224
     17          7    20001014        5.615913   -1.098044    0.287608
     18          6    20001002        6.871956   -0.830135   -0.174600
     19          6    20001001        7.494530   -1.930418   -1.003205
     20          8    20001024        7.444979    0.198369    0.055543
     21          6    20001002        4.617191    1.041013   -0.301899
     22          8    20001024        4.610861    0.731268   -1.462911
     23          7    20001014        4.408391    2.312543    0.102568
     24          6    20001001        4.326222    3.383271   -0.869539
     25          7    20001014       -5.873238   -0.700269    0.575582
     26          6    20001002       -7.034692    0.013271    0.615013
     27          6    20001001       -8.074612   -0.504450    1.586945
     28          8    20001024       -7.218621    0.986658   -0.059397
     29          1    20001035       -4.243777    3.408469    0.583988
     30          1    20001035       -2.736311    2.986826   -0.213157
     31          1    20001035       -2.844385    2.914377    1.541427
     32          1    20001029       -4.016632    0.909138    1.405118
     33          1    20001034       -4.770047   -0.862441   -2.646459
     34          1    20001034       -5.820382   -2.002149   -1.805318
     35          1    20001034       -6.331124   -0.335880   -2.076151
     36          1    20001034       -4.190784   -2.532721   -0.039525
     37          1    20001034       -3.425641   -1.305431    0.925479
     38          1    20001034       -2.049546   -2.632625   -0.777230
     39          1    20001034       -2.794728   -1.694139   -2.032205
     40          1    20001034       -1.756817    0.367364   -1.134587
     41          1    20001034       -0.596816   -0.855697   -1.526084
     42          1    20001033       -1.419125    0.093521    1.255764
     43          1    20001033        0.517170   -0.861332    2.078179
     44          1    20001034        0.799893   -2.328488   -0.591793
     45          1    20001034        1.527345   -2.759971    0.925232
     46          1    20001034        3.147245   -1.877776   -0.711139
     47          1    20001034        2.295287   -0.373151   -0.802851
     48          1    20001034        3.485642   -1.437342    1.794474
     49          1    20001034        2.759604    0.127198    1.553449
     50          1    20001034        5.453313   -0.367825    2.793729
     51          1    20001034        4.596213    1.145201    2.614148
     52          1    20001034        6.247469    0.979992    2.004355
     53          1    20001029        5.150417   -1.841129   -0.181274
     54          1    20001034        8.566962   -1.808141   -1.004303
     55          1    20001034        7.132854   -1.842083   -2.023260
     56          1    20001034        7.236823   -2.916482   -0.632200
     57          1    20001029        4.657055    2.560089    1.031113
     58          1    20001035        4.037370    4.292359   -0.358615
     59          1    20001035        3.579944    3.144557   -1.612984
     60          1    20001035        5.273806    3.542910   -1.373876
     61          1    20001029       -5.868284   -1.565166    1.069015
     62          1    20001034       -8.753348    0.299161    1.832911
     63          1    20001034       -7.629212   -0.897339    2.494032
     64          1    20001034       -8.639303   -1.301122    1.113406
 ---------------------------------------------------------------------
 Rotational constants (GHZ):      0.4219172      0.0494120      0.0475099
 Standard basis: 6-31G(d) (6D, 7F)
 There are   492 symmetry adapted basis functions of A   symmetry.
 Integral buffers will be    131072 words long.
 Raffenetti 1 integral format.
 Two-electron integral symmetry is turned on.
   492 basis functions,   928 primitive gaussians,   492 cartesian basis functions
   108 alpha electrons      108 beta electrons
       nuclear repulsion energy      2687.5028226600 Hartrees.
 NAtoms=   64 NActive=   64 NUniq=   64 SFac= 7.50D-01 NAtFMM=   80 NAOKFM=F Big=T
 One-electron integrals computed using PRISM.
 NBasis=   492 RedAO= T  NBF=   492
 NBsUse=   492 1.00D-06 NBFU=   492
 Harris functional with IExCor=  205 diagonalized for initial guess.
 ExpMin= 1.61D-01 ExpMax= 5.48D+03 ExpMxC= 8.25D+02 IAcc=1 IRadAn=         1 AccDes= 0.00D+00
 HarFok:  IExCor=  205 AccDes= 0.00D+00 IRadAn=         1 IDoV= 1
 ScaDFX=  1.000000  1.000000  1.000000  1.000000
 FoFCou: FMM=F IPFlag=           0 FMFlag=      100000 FMFlg1=           1
         NFxFlg=           0 DoJE=T BraDBF=F KetDBF=T FulRan=T
         Omega=  0.000000  0.000000  1.000000  0.000000  0.000000 ICntrl=     500 IOpCl=  0
         NMat0=    1 NMatS0=    1 NMatT0=    0 NMatD0=    1 NMtDS0=    0 NMtDT0=    0
         I1Cent=           4 NGrid=           0.
 Petite list used in FoFCou.
 Initial guess orbital symmetries:
       Occupied  (A) (A) (A) (A) (A) (A) (A) (A) (A) (A) (A) (A)
                 (A) (A) (A) (A) (A) (A) (A) (A) (A) (A) (A) (A)
                 (A) (A) (A) (A) (A) (A) (A) (A) (A) (A) (A) (A)
                 (A) (A) (A) (A) (A) (A) (A) (A) (A) (A) (A) (A)
                 (A) (A) (A) (A) (A) (A) (A) (A) (A) (A) (A) (A)
                 (A) (A) (A) (A) (A) (A) (A) (A) (A) (A) (A) (A)
                 (A) (A) (A) (A) (A) (A) (A) (A) (A) (A) (A) (A)
                 (A) (A) (A) (A) (A) (A) (A) (A) (A) (A) (A) (A)
                 (A) (A) (A) (A) (A) (A) (A) (A) (A) (A) (A) (A)
       Virtual   (A) (A) (A) (A) (A) (A) (A) (A) (A) (A) (A) (A)
                 (A) (A) (A) (A) (A) (A) (A) (A) (A) (A) (A) (A)
                 (A) (A) (A) (A) (A) (A) (A) (A) (A) (A) (A) (A)
                 (A) (A) (A) (A) (A) (A) (A) (A) (A) (A) (A) (A)
                 (A) (A) (A) (A) (A) (A) (A) (A) (A) (A) (A) (A)
                 (A) (A) (A) (A) (A) (A) (A) (A) (A) (A) (A) (A)
                 (A) (A) (A) (A) (A) (A) (A) (A) (A) (A) (A) (A)
                 (A) (A) (A) (A) (A) (A) (A) (A) (A) (A) (A) (A)
                 (A) (A) (A) (A) (A) (A) (A) (A) (A) (A) (A) (A)
                 (A) (A) (A) (A) (A) (A) (A) (A) (A) (A) (A) (A)
                 (A) (A) (A) (A) (A) (A) (A) (A) (A) (A) (A) (A)
                 (A) (A) (A) (A) (A) (A) (A) (A) (A) (A) (A) (A)
                 (A) (A) (A) (A) (A) (A) (A) (A) (A) (A) (A) (A)
                 (A) (A) (A) (A) (A) (A) (A) (A) (A) (A) (A) (A)
                 (A) (A) (A) (A) (A) (A) (A) (A) (A) (A) (A) (A)
                 (A) (A) (A) (A) (A) (A) (A) (A) (A) (A) (A) (A)
                 (A) (A) (A) (A) (A) (A) (A) (A) (A) (A) (A) (A)
                 (A) (A) (A) (A) (A) (A) (A) (A) (A) (A) (A) (A)
                 (A) (A) (A) (A) (A) (A) (A) (A) (A) (A) (A) (A)
                 (A) (A) (A) (A) (A) (A) (A) (A) (A) (A) (A) (A)
                 (A) (A) (A) (A) (A) (A) (A) (A) (A) (A) (A) (A)
                 (A) (A) (A) (A) (A) (A) (A) (A) (A) (A) (A) (A)
                 (A) (A) (A) (A) (A) (A) (A) (A) (A) (A) (A) (A)
                 (A) (A) (A) (A) (A) (A) (A) (A) (A) (A) (A) (A)
                 (A) (A) (A) (A) (A) (A) (A) (A) (A) (A) (A) (A)
                 (A) (A) (A) (A) (A) (A) (A) (A) (A) (A) (A) (A)
                 (A) (A) (A) (A) (A) (A) (A) (A) (A) (A) (A) (A)
                 (A) (A) (A) (A) (A) (A) (A) (A) (A) (A) (A) (A)
                 (A) (A) (A) (A) (A) (A) (A) (A) (A) (A) (A) (A)
                 (A) (A) (A) (A) (A) (A) (A) (A) (A) (A) (A) (A)
                 (A) (A) (A) (A) (A) (A) (A) (A) (A) (A) (A) (A)
                 (A) (A) (A) (A) (A) (A) (A) (A) (A) (A) (A) (A)
 The electronic state of the initial guess is 1-A.
 Requested convergence on RMS density matrix=1.00D-08 within 128 cycles.
 Requested convergence on MAX density matrix=1.00D-06.
 Requested convergence on             energy=1.00D-06.
 No special actions if energy rises.
 Integral accuracy reduced to 1.0D-05 until final iterations.
 Initial convergence to 1.0D-05 achieved.  Increase integral accuracy.
 SCF Done:  E(RHF) =  -1295.61767173     A.U. after   14 cycles
             Convg  =    0.6895D-08             -V/T =  2.0012

 **********************************************************************

            Population analysis using the SCF density.

 **********************************************************************

 Orbital symmetries:
       Occupied  (A) (A) (A) (A) (A) (A) (A) (A) (A) (A) (A) (A)
                 (A) (A) (A) (A) (A) (A) (A) (A) (A) (A) (A) (A)
                 (A) (A) (A) (A) (A) (A) (A) (A) (A) (A) (A) (A)
                 (A) (A) (A) (A) (A) (A) (A) (A) (A) (A) (A) (A)
                 (A) (A) (A) (A) (A) (A) (A) (A) (A) (A) (A) (A)
                 (A) (A) (A) (A) (A) (A) (A) (A) (A) (A) (A) (A)
                 (A) (A) (A) (A) (A) (A) (A) (A) (A) (A) (A) (A)
                 (A) (A) (A) (A) (A) (A) (A) (A) (A) (A) (A) (A)
                 (A) (A) (A) (A) (A) (A) (A) (A) (A) (A) (A) (A)
       Virtual   (A) (A) (A) (A) (A) (A) (A) (A) (A) (A) (A) (A)
                 (A) (A) (A) (A) (A) (A) (A) (A) (A) (A) (A) (A)
                 (A) (A) (A) (A) (A) (A) (A) (A) (A) (A) (A) (A)
                 (A) (A) (A) (A) (A) (A) (A) (A) (A) (A) (A) (A)
                 (A) (A) (A) (A) (A) (A) (A) (A) (A) (A) (A) (A)
                 (A) (A) (A) (A) (A) (A) (A) (A) (A) (A) (A) (A)
                 (A) (A) (A) (A) (A) (A) (A) (A) (A) (A) (A) (A)
                 (A) (A) (A) (A) (A) (A) (A) (A) (A) (A) (A) (A)
                 (A) (A) (A) (A) (A) (A) (A) (A) (A) (A) (A) (A)
                 (A) (A) (A) (A) (A) (A) (A) (A) (A) (A) (A) (A)
                 (A) (A) (A) (A) (A) (A) (A) (A) (A) (A) (A) (A)
                 (A) (A) (A) (A) (A) (A) (A) (A) (A) (A) (A) (A)
                 (A) (A) (A) (A) (A) (A) (A) (A) (A) (A) (A) (A)
                 (A) (A) (A) (A) (A) (A) (A) (A) (A) (A) (A) (A)
                 (A) (A) (A) (A) (A) (A) (A) (A) (A) (A) (A) (A)
                 (A) (A) (A) (A) (A) (A) (A) (A) (A) (A) (A) (A)
                 (A) (A) (A) (A) (A) (A) (A) (A) (A) (A) (A) (A)
                 (A) (A) (A) (A) (A) (A) (A) (A) (A) (A) (A) (A)
                 (A) (A) (A) (A) (A) (A) (A) (A) (A) (A) (A) (A)
                 (A) (A) (A) (A) (A) (A) (A) (A) (A) (A) (A) (A)
                 (A) (A) (A) (A) (A) (A) (A) (A) (A) (A) (A) (A)
                 (A) (A) (A) (A) (A) (A) (A) (A) (A) (A) (A) (A)
                 (A) (A) (A) (A) (A) (A) (A) (A) (A) (A) (A) (A)
                 (A) (A) (A) (A) (A) (A) (A) (A) (A) (A) (A) (A)
                 (A) (A) (A) (A) (A) (A) (A) (A) (A) (A) (A) (A)
                 (A) (A) (A) (A) (A) (A) (A) (A) (A) (A) (A) (A)
                 (A) (A) (A) (A) (A) (A) (A) (A) (A) (A) (A) (A)
                 (A) (A) (A) (A) (A) (A) (A) (A) (A) (A) (A) (A)
                 (A) (A) (A) (A) (A) (A) (A) (A) (A) (A) (A) (A)
                 (A) (A) (A) (A) (A) (A) (A) (A) (A) (A) (A) (A)
                 (A) (A) (A) (A) (A) (A) (A) (A) (A) (A) (A) (A)
                 (A) (A) (A) (A) (A) (A) (A) (A) (A) (A) (A) (A)
 The electronic state is 1-A.
 Alpha  occ. eigenvalues --  -20.53138 -20.52145 -20.51812 -20.51711 -15.59371
 Alpha  occ. eigenvalues --  -15.58016 -15.57816 -15.57634 -11.35551 -11.34353
 Alpha  occ. eigenvalues --  -11.33797 -11.33770 -11.28935 -11.28695 -11.25178
 Alpha  occ. eigenvalues --  -11.25086 -11.24119 -11.24039 -11.23557 -11.22987
 Alpha  occ. eigenvalues --  -11.22767 -11.22601 -11.22536 -11.22506 -11.22295
 Alpha  occ. eigenvalues --  -11.22094 -11.21922 -11.20649  -1.40100  -1.39475
 Alpha  occ. eigenvalues --   -1.38556  -1.38199  -1.25106  -1.23662  -1.22727
 Alpha  occ. eigenvalues --   -1.22412  -1.10989  -1.09374  -1.07295  -1.04315
 Alpha  occ. eigenvalues --   -1.01225  -0.99256  -0.98798  -0.95726  -0.95248
 Alpha  occ. eigenvalues --   -0.94691  -0.92325  -0.87309  -0.85845  -0.83070
 Alpha  occ. eigenvalues --   -0.81425  -0.79602  -0.78764  -0.77252  -0.76989
 Alpha  occ. eigenvalues --   -0.72083  -0.71366  -0.71022  -0.68708  -0.68111
 Alpha  occ. eigenvalues --   -0.66968  -0.65791  -0.64651  -0.64004  -0.63828
 Alpha  occ. eigenvalues --   -0.62596  -0.62401  -0.61830  -0.61519  -0.61247
 Alpha  occ. eigenvalues --   -0.60847  -0.59907  -0.59402  -0.58809  -0.58336
 Alpha  occ. eigenvalues --   -0.58274  -0.57869  -0.56550  -0.56533  -0.56324
 Alpha  occ. eigenvalues --   -0.55650  -0.55000  -0.54873  -0.54745  -0.54116
 Alpha  occ. eigenvalues --   -0.53215  -0.52749  -0.52305  -0.52115  -0.51697
 Alpha  occ. eigenvalues --   -0.50734  -0.50355  -0.49880  -0.49503  -0.48726
 Alpha  occ. eigenvalues --   -0.48528  -0.47210  -0.46567  -0.44808  -0.42614
 Alpha  occ. eigenvalues --   -0.41623  -0.41580  -0.41163  -0.39047  -0.38950
 Alpha  occ. eigenvalues --   -0.38509  -0.38395  -0.34800
 Alpha virt. eigenvalues --    0.17000   0.19023   0.19541   0.19903   0.20366
 Alpha virt. eigenvalues --    0.21480   0.21857   0.22245   0.23040   0.23660
 Alpha virt. eigenvalues --    0.25388   0.25542   0.26212   0.26929   0.27442
 Alpha virt. eigenvalues --    0.27626   0.28008   0.28754   0.29296   0.29576
 Alpha virt. eigenvalues --    0.30124   0.30336   0.31008   0.31198   0.31697
 Alpha virt. eigenvalues --    0.31892   0.32175   0.32788   0.33261   0.33582
 Alpha virt. eigenvalues --    0.33851   0.34315   0.34584   0.35163   0.35276
 Alpha virt. eigenvalues --    0.35366   0.35723   0.36734   0.37220   0.37286
 Alpha virt. eigenvalues --    0.38035   0.38957   0.39257   0.39504   0.39898
 Alpha virt. eigenvalues --    0.40263   0.41257   0.41980   0.42517   0.43804
 Alpha virt. eigenvalues --    0.44592   0.44666   0.45339   0.45974   0.46636
 Alpha virt. eigenvalues --    0.47159   0.48643   0.49059   0.52013   0.53108
 Alpha virt. eigenvalues --    0.53337   0.54980   0.57638   0.59173   0.59774
 Alpha virt. eigenvalues --    0.61938   0.63171   0.64188   0.68565   0.69956
 Alpha virt. eigenvalues --    0.70524   0.71216   0.71814   0.72275   0.72450
 Alpha virt. eigenvalues --    0.73350   0.74530   0.75087   0.75839   0.76416
 Alpha virt. eigenvalues --    0.77106   0.77399   0.77812   0.78401   0.78872
 Alpha virt. eigenvalues --    0.79560   0.80064   0.80529   0.80986   0.81442
 Alpha virt. eigenvalues --    0.83186   0.83929   0.85088   0.85445   0.86159
 Alpha virt. eigenvalues --    0.86992   0.88051   0.88740   0.90218   0.90492
 Alpha virt. eigenvalues --    0.91924   0.92210   0.92636   0.92907   0.94236
 Alpha virt. eigenvalues --    0.94542   0.95973   0.96955   0.97375   0.98164
 Alpha virt. eigenvalues --    0.98604   0.98732   0.99842   1.00354   1.00827
 Alpha virt. eigenvalues --    1.01484   1.01786   1.02236   1.02504   1.03709
 Alpha virt. eigenvalues --    1.03914   1.04964   1.05592   1.06857   1.07365
 Alpha virt. eigenvalues --    1.07438   1.08270   1.08783   1.09993   1.10344
 Alpha virt. eigenvalues --    1.12342   1.12788   1.13258   1.13550   1.14160
 Alpha virt. eigenvalues --    1.14373   1.14776   1.15054   1.15605   1.15894
 Alpha virt. eigenvalues --    1.16161   1.16606   1.16884   1.17620   1.17846
 Alpha virt. eigenvalues --    1.18178   1.18706   1.18933   1.19077   1.19157
 Alpha virt. eigenvalues --    1.19451   1.19728   1.20752   1.21083   1.21584
 Alpha virt. eigenvalues --    1.22071   1.22184   1.22414   1.22690   1.23097
 Alpha virt. eigenvalues --    1.23566   1.23692   1.24476   1.25337   1.25860
 Alpha virt. eigenvalues --    1.25962   1.27069   1.27174   1.28663   1.29066
 Alpha virt. eigenvalues --    1.29423   1.30006   1.30325   1.31152   1.31453
 Alpha virt. eigenvalues --    1.32797   1.33658   1.35362   1.35939   1.37492
 Alpha virt. eigenvalues --    1.37804   1.38750   1.40603   1.41877   1.43304
 Alpha virt. eigenvalues --    1.44543   1.44761   1.46358   1.47154   1.48346
 Alpha virt. eigenvalues --    1.50356   1.50473   1.53281   1.54331   1.55806
 Alpha virt. eigenvalues --    1.56857   1.58600   1.59949   1.60124   1.61314
 Alpha virt. eigenvalues --    1.62776   1.63321   1.65936   1.67229   1.69088
 Alpha virt. eigenvalues --    1.70193   1.71121   1.71788   1.72728   1.73450
 Alpha virt. eigenvalues --    1.74614   1.75231   1.77523   1.78200   1.79006
 Alpha virt. eigenvalues --    1.80415   1.81679   1.83363   1.86124   1.89297
 Alpha virt. eigenvalues --    1.89628   1.90387   1.91212   1.92687   1.94787
 Alpha virt. eigenvalues --    1.95755   1.96690   1.98367   1.99242   2.00448
 Alpha virt. eigenvalues --    2.03918   2.04450   2.06552   2.07252   2.08417
 Alpha virt. eigenvalues --    2.08806   2.11062   2.11103   2.11913   2.12238
 Alpha virt. eigenvalues --    2.13503   2.13880   2.14599   2.16108   2.16213
 Alpha virt. eigenvalues --    2.17026   2.17819   2.18896   2.18918   2.19732
 Alpha virt. eigenvalues --    2.20094   2.21305   2.22011   2.22554   2.23138
 Alpha virt. eigenvalues --    2.24854   2.25238   2.25901   2.26602   2.27265
 Alpha virt. eigenvalues --    2.27491   2.28658   2.29633   2.31192   2.31544
 Alpha virt. eigenvalues --    2.32747   2.33439   2.34082   2.34849   2.35910
 Alpha virt. eigenvalues --    2.36631   2.36915   2.37750   2.38099   2.39134
 Alpha virt. eigenvalues --    2.39346   2.39821   2.41845   2.43292   2.45350
 Alpha virt. eigenvalues --    2.45743   2.46631   2.48075   2.48936   2.51159
 Alpha virt. eigenvalues --    2.51562   2.52107   2.54388   2.54834   2.55921
 Alpha virt. eigenvalues --    2.56952   2.57138   2.57763   2.59185   2.60790
 Alpha virt. eigenvalues --    2.62383   2.63092   2.64151   2.64507   2.65389
 Alpha virt. eigenvalues --    2.67065   2.68868   2.69962   2.70484   2.71244
 Alpha virt. eigenvalues --    2.72360   2.73296   2.74488   2.75197   2.76196
 Alpha virt. eigenvalues --    2.77569   2.78038   2.78842   2.79302   2.79422
 Alpha virt. eigenvalues --    2.81646   2.82594   2.82988   2.84794   2.86232
 Alpha virt. eigenvalues --    2.87639   2.89439   2.90856   2.92035   2.95705
 Alpha virt. eigenvalues --    2.96589   2.97619   2.98533   2.99373   3.01803
 Alpha virt. eigenvalues --    3.02395   3.03258   3.05308   3.06135   3.07375
 Alpha virt. eigenvalues --    3.10928   3.11777   3.12430   3.13143   3.15509
 Alpha virt. eigenvalues --    3.16056   3.18433   3.22436   3.30454   3.30811
 Alpha virt. eigenvalues --    3.34290   3.34871   3.39208   3.40391   3.41045
 Alpha virt. eigenvalues --    3.42600   3.43489   3.53583   3.55607   3.57485
 Alpha virt. eigenvalues --    3.59140   4.38327   4.41236   4.43764   4.46138
 Alpha virt. eigenvalues --    4.49064   4.51795   4.55452   4.57861   4.61079
 Alpha virt. eigenvalues --    4.63160   4.66321   4.67403   4.68779   4.70058
 Alpha virt. eigenvalues --    4.73149   4.77518   4.79745   4.83301   4.84177
 Alpha virt. eigenvalues --    4.89191   4.92939   4.93849   4.95741   4.97936
 Alpha virt. eigenvalues --    5.01897   5.12260   5.22101   5.23468
          Condensed to atoms (all electrons):
 Mulliken atomic charges:
              1
     1  C   -0.279019
     2  N   -0.785607
     3  C    0.825072
     4  O   -0.615965
     5  C    0.082535
     6  C   -0.464508
     7  C   -0.330985
     8  C   -0.315990
     9  C   -0.364757
    10  C   -0.174074
    11  C   -0.175757
    12  C   -0.353847
    13  C   -0.310598
    14  C   -0.329134
    15  C    0.091112
    16  C   -0.509594
    17  N   -0.787591
    18  C    0.767266
    19  C   -0.595733
    20  O   -0.613683
    21  C    0.820497
    22  O   -0.639260
    23  N   -0.806157
    24  C   -0.275653
    25  N   -0.832276
    26  C    0.749482
    27  C   -0.588939
    28  O   -0.587705
    29  H    0.186282
    30  H    0.201468
    31  H    0.162074
    32  H    0.383714
    33  H    0.188880
    34  H    0.141257
    35  H    0.219894
    36  H    0.162329
    37  H    0.171370
    38  H    0.166768
    39  H    0.179552
    40  H    0.201843
    41  H    0.176527
    42  H    0.176870
    43  H    0.169995
    44  H    0.176775
    45  H    0.161011
    46  H    0.151773
    47  H    0.199155
    48  H    0.173415
    49  H    0.184545
    50  H    0.183677
    51  H    0.148164
    52  H    0.226995
    53  H    0.389725
    54  H    0.211454
    55  H    0.209537
    56  H    0.176326
    57  H    0.395396
    58  H    0.165024
    59  H    0.199439
    60  H    0.185428
    61  H    0.380498
    62  H    0.218618
    63  H    0.175792
    64  H    0.199297
 Sum of Mulliken atomic charges =   0.00000
 Mulliken charges with hydrogens summed into heavy atoms:
              1
     1  C    0.270804
     2  N   -0.401892
     3  C    0.825072
     4  O   -0.615965
     5  C    0.082535
     6  C    0.085523
     7  C    0.002714
     8  C    0.030330
     9  C    0.013613
    10  C    0.002797
    11  C   -0.005761
    12  C   -0.016061
    13  C    0.040329
    14  C    0.028826
    15  C    0.091112
    16  C    0.049242
    17  N   -0.397866
    18  C    0.767266
    19  C    0.001584
    20  O   -0.613683
    21  C    0.820497
    22  O   -0.639260
    23  N   -0.410761
    24  C    0.274238
    25  N   -0.451777
    26  C    0.749482
    27  C    0.004767
    28  O   -0.587705
 Sum of Mulliken charges with hydrogens summed into heavy atoms =   0.00000
 Electronic spatial extent (au):  <R**2>=          22004.2473
 Charge=              0.0000 electrons
 Dipole moment (field-independent basis, Debye):
    X=             -1.6363    Y=             -4.8901    Z=              6.4349  Tot=              8.2461
 Quadrupole moment (field-independent basis, Debye-Ang):
   XX=           -203.4385   YY=           -157.6194   ZZ=           -172.5978
   XY=             17.6116   XZ=            -18.2710   YZ=             10.4096
 Traceless Quadrupole moment (field-independent basis, Debye-Ang):
   XX=            -25.5533   YY=             20.2658   ZZ=              5.2875
   XY=             17.6116   XZ=            -18.2710   YZ=             10.4096
 Octapole moment (field-independent basis, Debye-Ang**2):
  XXX=           -223.6619  YYY=             44.8897  ZZZ=             15.8844  XYY=             69.9595
  XXY=           -258.7861  XXZ=            164.4175  XZZ=             -7.9676  YZZ=             -1.1825
  YYZ=              6.7479  XYZ=              1.6751
 Hexadecapole moment (field-independent basis, Debye-Ang**3):
 XXXX=         -27375.7960 YYYY=          -2245.4007 ZZZZ=          -1294.0225 XXXY=            492.1553
 XXXZ=          -1060.9164 YYYX=            105.2311 YYYZ=              6.3281 ZZZX=            -49.5113
 ZZZY=             17.8720 XXYY=          -4297.6500 XXZZ=          -4348.0374 YYZZ=           -610.5954
 XXYZ=            233.5346 YYXZ=            -85.9890 ZZXY=             32.6806
 N-N= 2.687502822660D+03 E-N=-8.406911582190D+03  KE= 1.294015575644D+03
 1\1\GINC-MOSURA\SP\RHF\6-31G(d)\C20H36N4O4\MARIE\05-Dec-2019\0\\#SP HF
 /6-31G* Geom=(ModRedundant)\\paramfit run\\0,1\C,0,0.,0.,0.\N,0,1.4481
 87,0.,0.\C,0,2.1232,0.47592,1.072365\O,0,1.590179,0.696732,2.124447\C,
 0,3.650505,0.594143,0.921539\C,0,4.253019,1.145194,2.218135\C,0,4.2595
 3,-0.7862,0.553651\C,0,4.08191,-1.964612,1.528039\C,0,2.756672,-2.7498
 61,1.46666\C,0,2.446765,-3.327345,0.105503\C,0,2.655398,-4.565649,-0.3
 1143\C,0,3.256488,-5.708762,0.470707\C,0,2.228399,-6.726975,0.995912\C
 ,0,1.441725,-7.409515,-0.131118\C,0,0.5004,-8.58299,0.245061\C,0,-0.20
 6355,-9.042345,-1.040607\N,0,1.307871,-9.675002,0.7714\C,0,0.734678,-1
 0.786579,1.318121\C,0,1.664441,-11.639417,2.150596\O,0,-0.419005,-11.0
 71847,1.154478\C,0,-0.45681,-8.107053,1.361286\O,0,-0.104494,-8.12471,
 2.509977\N,0,-1.642976,-7.583986,0.982613\C,0,-2.60752,-7.165908,1.979
 14\N,0,3.987746,1.464493,-0.214327\C,0,3.610154,2.771781,-0.304281\C,0
 ,4.342864,3.581859,-1.353581\O,0,2.753072,3.246088,0.38607\H,0,-0.4032
 59,1.006147,0.\H,0,-0.36496,-0.516002,0.875939\H,0,-0.345658,-0.522086
 ,-0.883346\H,0,1.904244,0.070913,-0.879357\H,0,3.994224,0.526084,3.063
 511\H,0,5.334261,1.18506,2.125584\H,0,3.879559,2.139789,2.413675\H,0,5
 .328782,-0.616034,0.448935\H,0,3.899111,-1.070262,-0.43006\H,0,4.88507
 4,-2.6638,1.314306\H,0,4.238091,-1.629332,2.548122\H,0,1.935567,-2.117
 225,1.777983\H,0,2.819854,-3.542474,2.203957\H,0,2.000608,-2.639043,-0
 .593995\H,0,2.364037,-4.800904,-1.323124\H,0,3.821157,-5.331059,1.3144
 82\H,0,3.973074,-6.225161,-0.166811\H,0,2.764368,-7.460286,1.592038\H,
 0,1.548484,-6.23033,1.675537\H,0,2.13656,-7.795959,-0.873681\H,0,0.836
 054,-6.66321,-0.631657\H,0,0.53526,-9.45078,-1.717193\H,0,-0.683359,-8
 .209083,-1.5461\H,0,-0.938829,-9.809942,-0.840569\H,0,2.168868,-9.4037
 9,1.188341\H,0,1.259709,-12.63752,2.221617\H,0,1.722384,-11.215238,3.1
 48514\H,0,2.665677,-11.676865,1.735258\H,0,-1.98979,-7.80414,0.078975\
 H,0,-3.428242,-6.669171,1.478552\H,0,-2.144363,-6.47445,2.667614\H,0,-
 2.992027,-8.007944,2.545608\H,0,4.796512,1.200881,-0.73197\H,0,3.74001
 6,4.438668,-1.617068\H,0,4.560731,3.000811,-2.242663\H,0,5.282201,3.93
 4228,-0.939717\\Version=EM64L-G09RevA.02\State=1-A\HF=-1295.6176717\RM
 SD=6.895e-09\Dipole=1.9094736,-0.0307274,-2.6226439\Quadrupole=19.6951
 034,-24.8135325,5.1184291,1.8876961,3.0087851,-13.7859495\PG=C01 [X(C2
 0H36N4O4)]\\@


 A MAN THINKING OR WORKING IS ALWAYS ALONE, 
 LET HIM BE WHERE HE WILL.

                                    -- THOREAU
 Job cpu time:  0 days  0 hours  5 minutes 15.2 seconds.
 File lengths (MBytes):  RWF=    132 Int=      0 D2E=      0 Chk=     10 Scr=      1
 Normal termination of Gaussian 09 at Thu Dec  5 15:59:41 2019.
