 Entering Gaussian System, Link 0=g09
 Input=PSI_-70.gau
 Output=PSI_-70.log
 Initial command:
 /home/marie/Utilities//g09/l1.exe /tmp/g09/Gau-5835.inp -scrdir=/tmp/g09/
 Entering Link 1 = /home/marie/Utilities//g09/l1.exe PID=      5837.
  
 Copyright (c) 1988,1990,1992,1993,1995,1998,2003,2009, Gaussian, Inc.
                  All Rights Reserved.
  
 This is part of the Gaussian(R) 09 program.  It is based on
 the Gaussian(R) 03 system (copyright 2003, Gaussian, Inc.),
 the Gaussian(R) 98 system (copyright 1998, Gaussian, Inc.),
 the Gaussian(R) 94 system (copyright 1995, Gaussian, Inc.),
 the Gaussian 92(TM) system (copyright 1992, Gaussian, Inc.),
 the Gaussian 90(TM) system (copyright 1990, Gaussian, Inc.),
 the Gaussian 88(TM) system (copyright 1988, Gaussian, Inc.),
 the Gaussian 86(TM) system (copyright 1986, Carnegie Mellon
 University), and the Gaussian 82(TM) system (copyright 1983,
 Carnegie Mellon University). Gaussian is a federally registered
 trademark of Gaussian, Inc.
  
 This software contains proprietary and confidential information,
 including trade secrets, belonging to Gaussian, Inc.
  
 This software is provided under written license and may be
 used, copied, transmitted, or stored only in accord with that
 written license.
  
 The following legend is applicable only to US Government
 contracts under FAR:
  
                    RESTRICTED RIGHTS LEGEND
  
 Use, reproduction and disclosure by the US Government is
 subject to restrictions as set forth in subparagraphs (a)
 and (c) of the Commercial Computer Software - Restricted
 Rights clause in FAR 52.227-19.
  
 Gaussian, Inc.
 340 Quinnipiac St., Bldg. 40, Wallingford CT 06492
  
  
 ---------------------------------------------------------------
 Warning -- This program may not be used in any manner that
 competes with the business of Gaussian, Inc. or will provide
 assistance to any competitor of Gaussian, Inc.  The licensee
 of this program is prohibited from giving any competitor of
 Gaussian, Inc. access to this program.  By using this program,
 the user acknowledges that Gaussian, Inc. is engaged in the
 business of creating and licensing software in the field of
 computational chemistry and represents and warrants to the
 licensee that it is not a competitor of Gaussian, Inc. and that
 it will not use this program in any manner prohibited above.
 ---------------------------------------------------------------
  

 Cite this work as:
 Gaussian 09, Revision A.02,
 M. J. Frisch, G. W. Trucks, H. B. Schlegel, G. E. Scuseria, 
 M. A. Robb, J. R. Cheeseman, G. Scalmani, V. Barone, B. Mennucci, 
 G. A. Petersson, H. Nakatsuji, M. Caricato, X. Li, H. P. Hratchian, 
 A. F. Izmaylov, J. Bloino, G. Zheng, J. L. Sonnenberg, M. Hada, 
 M. Ehara, K. Toyota, R. Fukuda, J. Hasegawa, M. Ishida, T. Nakajima, 
 Y. Honda, O. Kitao, H. Nakai, T. Vreven, J. A. Montgomery, Jr., 
 J. E. Peralta, F. Ogliaro, M. Bearpark, J. J. Heyd, E. Brothers, 
 K. N. Kudin, V. N. Staroverov, R. Kobayashi, J. Normand, 
 K. Raghavachari, A. Rendell, J. C. Burant, S. S. Iyengar, J. Tomasi, 
 M. Cossi, N. Rega, J. M. Millam, M. Klene, J. E. Knox, J. B. Cross, 
 V. Bakken, C. Adamo, J. Jaramillo, R. Gomperts, R. E. Stratmann, 
 O. Yazyev, A. J. Austin, R. Cammi, C. Pomelli, J. W. Ochterski, 
 R. L. Martin, K. Morokuma, V. G. Zakrzewski, G. A. Voth, 
 P. Salvador, J. J. Dannenberg, S. Dapprich, A. D. Daniels, 
 O. Farkas, J. B. Foresman, J. V. Ortiz, J. Cioslowski, 
 and D. J. Fox, Gaussian, Inc., Wallingford CT, 2009.
 
 ******************************************
 Gaussian 09:  EM64L-G09RevA.02 11-Jun-2009
                 5-Dec-2019 
 ******************************************
 %chk=PSI_-70
 %NoSave
 ---------------------------------
 #SP HF/6-31G* Geom=(ModRedundant)
 ---------------------------------
 1/18=120,38=1/1;
 2/12=2,17=6,18=5,40=1/2;
 3/5=1,6=6,7=1,11=9,16=1,25=1,30=1/1,2,3;
 4//1;
 5/5=2,38=5/2;
 6/7=2,8=2,9=2,10=2,28=1/1;
 99/5=1,9=1/99;
 ------------
 paramfit run
 ------------
 Symbolic Z-matrix:
 Charge =  0 Multiplicity = 1
 C-CT--0.3208          0.        0.        0. 
 N-N--0.5622           1.44819   0.        0. 
 C-C-0.8053            2.1232    0.47592   1.07237 
 O-O--0.6151           1.59018   0.69673   2.12445 
 C-CX-0.0839           3.65051   0.59414   0.92154 
 C-CU--0.3230          4.27199  -0.80584   0.88091 
 C-CU--0.0657          4.00005   1.40826  -0.35386 
 C-CU--0.0109          3.54029   0.88182  -1.7254 
 C-CU-0.0816           2.09359   1.18851  -2.16086 
 C-CM--0.2354          1.75725   2.66116  -2.18266 
 C-CM--0.2653          1.74519   3.46996  -3.22977 
 C-CU-0.1214           2.06602   3.12086  -4.66328 
 C-CU--0.0354          0.83081   2.95557  -5.56689 
 C-CU--0.0984         -0.00644   4.23779  -5.66602 
 C-CU-0.1300          -1.17818   4.26572  -6.68135 
 C-CU--0.3561         -1.88455   5.6237   -6.53862 
 N-N--0.7186          -0.63042   4.14273  -8.02536 
 C-C-0.8537           -1.4396    3.99299  -9.11434 
 C-CT--0.3868         -0.74345   3.50282  -10.36331 
 O-O--0.6323          -2.61518   4.23077  -9.08979 
 C-C-0.7903           -2.08806   3.04492  -6.41582 
 O-O--0.6136          -1.81348   1.9718   -6.88157 
 N-N--0.5650          -3.12582   3.21496  -5.56839 
 C-CT--0.3231         -4.04715   2.12624  -5.31534 
 N-N--0.7191           4.2161    1.37733   2.02976 
 C-C-0.8539            4.10568   1.02148   3.34157 
 C-CT--0.3903          5.04176   1.74725   4.28557 
 O-O--0.6290           3.31835   0.20364   3.72548 
 H-H1-0.1459          -0.40326   1.00615   0. 
 H-H1-0.1459          -0.36496  -0.516     0.87594 
 H-H1-0.1459          -0.34566  -0.52209  -0.88335 
 H-H-0.3572            1.90424   0.07091  -0.87936 
 H-HC-0.0997           3.84897  -1.39838   0.08412 
 H-HC-0.0997           5.34388  -0.72091   0.72903 
 H-HC-0.0997           4.08819  -1.32624   1.80953 
 H-HC-0.0347           5.08623   1.461    -0.37913 
 H-HC-0.0347           3.64927   2.42662  -0.21903 
 H-HC-0.0243           4.20332   1.32505  -2.46266 
 H-HC-0.0243           3.69891  -0.19002  -1.78357 
 H-HC-0.0171           1.39436   0.67536  -1.51347 
 H-HC-0.0171           1.95843   0.75908  -3.14735 
 H-HA-0.1313           1.49493   3.08591  -1.22721 
 H-HA-0.1359           1.47316   4.49909  -3.05472 
 H-HC-0.0092           2.64316   2.20518  -4.70708 
 H-HC-0.0092           2.70451   3.90154  -5.07493 
 H-HC-0.0318           1.17836   2.6442   -6.54803 
 H-HC-0.0318           0.22194   2.14217  -5.19475 
 H-HC-0.0435           0.64213   5.07384  -5.91883 
 H-HC-0.0435          -0.42529   4.45402  -4.69023 
 H-HC-0.1066          -1.19829   6.40539  -6.84291 
 H-HC-0.1066          -2.16022   5.81686  -5.50708 
 H-HC-0.1066          -2.76263   5.68416  -7.16397 
 H-H-0.3529            0.24107   3.66794  -8.08694 
 H-HC-0.1047          -1.33788   3.76523  -11.2252 
 H-HC-0.1047          -0.66246   2.42117  -10.31229 
 H-HC-0.1047           0.25389   3.91699  -10.46404 
 H-H-0.3615           -3.45552   4.13664  -5.40374 
 H-H1-0.1469          -4.72507   2.4237   -4.52613 
 H-H1-0.1469          -3.49938   1.25107  -4.99808 
 H-H1-0.1469          -4.62033   1.86976  -6.20046 
 H-H-0.3570            4.98699   1.96151   1.79312 
 H-HC-0.1060           4.63333   1.70317   5.28468 
 H-HC-0.1060           5.194     2.78155   3.99816 
 H-HC-0.1060           6.00591   1.24904   4.28399 
 
 The following ModRedundant input section has been read:
 D    *    3    5    * F                                                       
 Stoichiometry    C20H36N4O4
 Framework group  C1[X(C20H36N4O4)]
 Deg. of freedom   186
 Full point group                 C1      NOp   1
 Largest Abelian subgroup         C1      NOp   1
 Largest concise Abelian subgroup C1      NOp   1
                         Standard orientation:                         
 ---------------------------------------------------------------------
 Center     Atomic      Atomic             Coordinates (Angstroms)
 Number     Number       Type             X           Y           Z
 ---------------------------------------------------------------------
      1          6    20001001       -2.627315    2.579490   -0.728206
      2          7    20001014       -3.289435    1.314294   -0.969290
      3          6    20001002       -4.378859    0.973201   -0.242021
      4          8    20001024       -4.967463    1.760165    0.446441
      5          6    90000001       -4.917475   -0.454295   -0.445818
      6          6    90000002       -5.544158   -0.572211   -1.839089
      7          6    90000002       -3.777019   -1.489255   -0.246266
      8          6    90000002       -2.546032   -1.431442   -1.168742
      9          6    90000002       -1.432901   -0.425679   -0.813753
     10          6    20001004       -0.864110   -0.602906    0.574536
     11          6    20001004        0.246744   -1.235510    0.915962
     12          6    90000002        1.221126   -1.938412    0.001487
     13          6    90000002        2.507275   -1.142891   -0.285797
     14          6    90000002        3.319363   -0.851352    0.983230
     15          6    90000002        4.723221   -0.213519    0.818920
     16          6    90000002        5.290867    0.029679    2.226785
     17          7    20001014        5.578872   -1.152526    0.106420
     18          6    20001002        6.831549   -0.802937   -0.307883
     19          6    20001001        7.439926   -1.720846   -1.343319
     20          8    20001024        7.412249    0.158469    0.113577
     21          6    20001002        4.585428    1.063794   -0.040272
     22          8    20001024        4.565706    0.988307   -1.239372
     23          7    20001014        4.387394    2.231674    0.608434
     24          6    20001001        4.300975    3.472835   -0.133359
     25          7    20001014       -5.904529   -0.783080    0.592958
     26          6    20001002       -7.061775   -0.087568    0.784573
     27          6    20001001       -8.094480   -0.782958    1.647169
     28          8    20001024       -7.247439    0.999957    0.316643
     29          1    20001035       -2.172016    2.615482    0.254829
     30          1    20001035       -3.341859    3.385853   -0.805203
     31          1    20001035       -1.861122    2.717555   -1.480694
     32          1    20001029       -2.733494    0.567003   -1.313920
     33          1    20001034       -4.834928   -0.312265   -2.610034
     34          1    20001034       -5.882628   -1.591766   -1.997778
     35          1    20001034       -6.387367    0.096826   -1.930284
     36          1    20001034       -4.238007   -2.464159   -0.388654
     37          1    20001034       -3.456710   -1.452883    0.790247
     38          1    20001034       -2.104911   -2.423835   -1.155052
     39          1    20001034       -2.857861   -1.254661   -2.192892
     40          1    20001034       -1.800132    0.586942   -0.919126
     41          1    20001034       -0.650573   -0.538947   -1.556025
     42          1    20001033       -1.439657   -0.152434    1.366959
     43          1    20001033        0.499857   -1.256373    1.964418
     44          1    20001034        0.747814   -2.171016   -0.944736
     45          1    20001034        1.488343   -2.894528    0.449851
     46          1    20001034        3.096161   -1.713002   -0.998932
     47          1    20001034        2.251199   -0.217036   -0.783842
     48          1    20001034        3.462245   -1.774693    1.540510
     49          1    20001034        2.741994   -0.191027    1.619600
     50          1    20001034        5.445515   -0.928615    2.708799
     51          1    20001034        4.594564    0.592875    2.839446
     52          1    20001034        6.238664    0.545564    2.191002
     53          1    20001029        5.104766   -1.787496   -0.494204
     54          1    20001034        8.512915   -1.604103   -1.332132
     55          1    20001034        7.068392   -1.432612   -2.322098
     56          1    20001034        7.180839   -2.759783   -1.170507
     57          1    20001029        4.646752    2.291108    1.564735
     58          1    20001035        4.022077    4.264671    0.549380
     59          1    20001035        3.545958    3.387240   -0.900984
     60          1    20001035        5.244217    3.725512   -0.606857
     61          1    20001029       -5.899097   -1.728101    0.906733
     62          1    20001034       -8.766475   -0.041240    2.053681
     63          1    20001034       -7.641967   -1.347864    2.454426
     64          1    20001034       -8.668103   -1.469242    1.032538
 ---------------------------------------------------------------------
 Rotational constants (GHZ):      0.4325500      0.0497232      0.0477454
 Standard basis: 6-31G(d) (6D, 7F)
 There are   492 symmetry adapted basis functions of A   symmetry.
 Integral buffers will be    131072 words long.
 Raffenetti 1 integral format.
 Two-electron integral symmetry is turned on.
   492 basis functions,   928 primitive gaussians,   492 cartesian basis functions
   108 alpha electrons      108 beta electrons
       nuclear repulsion energy      2703.3873596971 Hartrees.
 NAtoms=   64 NActive=   64 NUniq=   64 SFac= 7.50D-01 NAtFMM=   80 NAOKFM=F Big=T
 One-electron integrals computed using PRISM.
 NBasis=   492 RedAO= T  NBF=   492
 NBsUse=   492 1.00D-06 NBFU=   492
 Harris functional with IExCor=  205 diagonalized for initial guess.
 ExpMin= 1.61D-01 ExpMax= 5.48D+03 ExpMxC= 8.25D+02 IAcc=1 IRadAn=         1 AccDes= 0.00D+00
 HarFok:  IExCor=  205 AccDes= 0.00D+00 IRadAn=         1 IDoV= 1
 ScaDFX=  1.000000  1.000000  1.000000  1.000000
 FoFCou: FMM=F IPFlag=           0 FMFlag=      100000 FMFlg1=           1
         NFxFlg=           0 DoJE=T BraDBF=F KetDBF=T FulRan=T
         Omega=  0.000000  0.000000  1.000000  0.000000  0.000000 ICntrl=     500 IOpCl=  0
         NMat0=    1 NMatS0=    1 NMatT0=    0 NMatD0=    1 NMtDS0=    0 NMtDT0=    0
         I1Cent=           4 NGrid=           0.
 Petite list used in FoFCou.
 Initial guess orbital symmetries:
       Occupied  (A) (A) (A) (A) (A) (A) (A) (A) (A) (A) (A) (A)
                 (A) (A) (A) (A) (A) (A) (A) (A) (A) (A) (A) (A)
                 (A) (A) (A) (A) (A) (A) (A) (A) (A) (A) (A) (A)
                 (A) (A) (A) (A) (A) (A) (A) (A) (A) (A) (A) (A)
                 (A) (A) (A) (A) (A) (A) (A) (A) (A) (A) (A) (A)
                 (A) (A) (A) (A) (A) (A) (A) (A) (A) (A) (A) (A)
                 (A) (A) (A) (A) (A) (A) (A) (A) (A) (A) (A) (A)
                 (A) (A) (A) (A) (A) (A) (A) (A) (A) (A) (A) (A)
                 (A) (A) (A) (A) (A) (A) (A) (A) (A) (A) (A) (A)
       Virtual   (A) (A) (A) (A) (A) (A) (A) (A) (A) (A) (A) (A)
                 (A) (A) (A) (A) (A) (A) (A) (A) (A) (A) (A) (A)
                 (A) (A) (A) (A) (A) (A) (A) (A) (A) (A) (A) (A)
                 (A) (A) (A) (A) (A) (A) (A) (A) (A) (A) (A) (A)
                 (A) (A) (A) (A) (A) (A) (A) (A) (A) (A) (A) (A)
                 (A) (A) (A) (A) (A) (A) (A) (A) (A) (A) (A) (A)
                 (A) (A) (A) (A) (A) (A) (A) (A) (A) (A) (A) (A)
                 (A) (A) (A) (A) (A) (A) (A) (A) (A) (A) (A) (A)
                 (A) (A) (A) (A) (A) (A) (A) (A) (A) (A) (A) (A)
                 (A) (A) (A) (A) (A) (A) (A) (A) (A) (A) (A) (A)
                 (A) (A) (A) (A) (A) (A) (A) (A) (A) (A) (A) (A)
                 (A) (A) (A) (A) (A) (A) (A) (A) (A) (A) (A) (A)
                 (A) (A) (A) (A) (A) (A) (A) (A) (A) (A) (A) (A)
                 (A) (A) (A) (A) (A) (A) (A) (A) (A) (A) (A) (A)
                 (A) (A) (A) (A) (A) (A) (A) (A) (A) (A) (A) (A)
                 (A) (A) (A) (A) (A) (A) (A) (A) (A) (A) (A) (A)
                 (A) (A) (A) (A) (A) (A) (A) (A) (A) (A) (A) (A)
                 (A) (A) (A) (A) (A) (A) (A) (A) (A) (A) (A) (A)
                 (A) (A) (A) (A) (A) (A) (A) (A) (A) (A) (A) (A)
                 (A) (A) (A) (A) (A) (A) (A) (A) (A) (A) (A) (A)
                 (A) (A) (A) (A) (A) (A) (A) (A) (A) (A) (A) (A)
                 (A) (A) (A) (A) (A) (A) (A) (A) (A) (A) (A) (A)
                 (A) (A) (A) (A) (A) (A) (A) (A) (A) (A) (A) (A)
                 (A) (A) (A) (A) (A) (A) (A) (A) (A) (A) (A) (A)
                 (A) (A) (A) (A) (A) (A) (A) (A) (A) (A) (A) (A)
                 (A) (A) (A) (A) (A) (A) (A) (A) (A) (A) (A) (A)
                 (A) (A) (A) (A) (A) (A) (A) (A) (A) (A) (A) (A)
                 (A) (A) (A) (A) (A) (A) (A) (A) (A) (A) (A) (A)
                 (A) (A) (A) (A) (A) (A) (A) (A) (A) (A) (A) (A)
                 (A) (A) (A) (A) (A) (A) (A) (A) (A) (A) (A) (A)
                 (A) (A) (A) (A) (A) (A) (A) (A) (A) (A) (A) (A)
                 (A) (A) (A) (A) (A) (A) (A) (A) (A) (A) (A) (A)
 The electronic state of the initial guess is 1-A.
 Requested convergence on RMS density matrix=1.00D-08 within 128 cycles.
 Requested convergence on MAX density matrix=1.00D-06.
 Requested convergence on             energy=1.00D-06.
 No special actions if energy rises.
 Integral accuracy reduced to 1.0D-05 until final iterations.
 Initial convergence to 1.0D-05 achieved.  Increase integral accuracy.
 SCF Done:  E(RHF) =  -1295.50397751     A.U. after   14 cycles
             Convg  =    0.9540D-08             -V/T =  2.0008

 **********************************************************************

            Population analysis using the SCF density.

 **********************************************************************

 Orbital symmetries:
       Occupied  (A) (A) (A) (A) (A) (A) (A) (A) (A) (A) (A) (A)
                 (A) (A) (A) (A) (A) (A) (A) (A) (A) (A) (A) (A)
                 (A) (A) (A) (A) (A) (A) (A) (A) (A) (A) (A) (A)
                 (A) (A) (A) (A) (A) (A) (A) (A) (A) (A) (A) (A)
                 (A) (A) (A) (A) (A) (A) (A) (A) (A) (A) (A) (A)
                 (A) (A) (A) (A) (A) (A) (A) (A) (A) (A) (A) (A)
                 (A) (A) (A) (A) (A) (A) (A) (A) (A) (A) (A) (A)
                 (A) (A) (A) (A) (A) (A) (A) (A) (A) (A) (A) (A)
                 (A) (A) (A) (A) (A) (A) (A) (A) (A) (A) (A) (A)
       Virtual   (A) (A) (A) (A) (A) (A) (A) (A) (A) (A) (A) (A)
                 (A) (A) (A) (A) (A) (A) (A) (A) (A) (A) (A) (A)
                 (A) (A) (A) (A) (A) (A) (A) (A) (A) (A) (A) (A)
                 (A) (A) (A) (A) (A) (A) (A) (A) (A) (A) (A) (A)
                 (A) (A) (A) (A) (A) (A) (A) (A) (A) (A) (A) (A)
                 (A) (A) (A) (A) (A) (A) (A) (A) (A) (A) (A) (A)
                 (A) (A) (A) (A) (A) (A) (A) (A) (A) (A) (A) (A)
                 (A) (A) (A) (A) (A) (A) (A) (A) (A) (A) (A) (A)
                 (A) (A) (A) (A) (A) (A) (A) (A) (A) (A) (A) (A)
                 (A) (A) (A) (A) (A) (A) (A) (A) (A) (A) (A) (A)
                 (A) (A) (A) (A) (A) (A) (A) (A) (A) (A) (A) (A)
                 (A) (A) (A) (A) (A) (A) (A) (A) (A) (A) (A) (A)
                 (A) (A) (A) (A) (A) (A) (A) (A) (A) (A) (A) (A)
                 (A) (A) (A) (A) (A) (A) (A) (A) (A) (A) (A) (A)
                 (A) (A) (A) (A) (A) (A) (A) (A) (A) (A) (A) (A)
                 (A) (A) (A) (A) (A) (A) (A) (A) (A) (A) (A) (A)
                 (A) (A) (A) (A) (A) (A) (A) (A) (A) (A) (A) (A)
                 (A) (A) (A) (A) (A) (A) (A) (A) (A) (A) (A) (A)
                 (A) (A) (A) (A) (A) (A) (A) (A) (A) (A) (A) (A)
                 (A) (A) (A) (A) (A) (A) (A) (A) (A) (A) (A) (A)
                 (A) (A) (A) (A) (A) (A) (A) (A) (A) (A) (A) (A)
                 (A) (A) (A) (A) (A) (A) (A) (A) (A) (A) (A) (A)
                 (A) (A) (A) (A) (A) (A) (A) (A) (A) (A) (A) (A)
                 (A) (A) (A) (A) (A) (A) (A) (A) (A) (A) (A) (A)
                 (A) (A) (A) (A) (A) (A) (A) (A) (A) (A) (A) (A)
                 (A) (A) (A) (A) (A) (A) (A) (A) (A) (A) (A) (A)
                 (A) (A) (A) (A) (A) (A) (A) (A) (A) (A) (A) (A)
                 (A) (A) (A) (A) (A) (A) (A) (A) (A) (A) (A) (A)
                 (A) (A) (A) (A) (A) (A) (A) (A) (A) (A) (A) (A)
                 (A) (A) (A) (A) (A) (A) (A) (A) (A) (A) (A) (A)
                 (A) (A) (A) (A) (A) (A) (A) (A) (A) (A) (A) (A)
                 (A) (A) (A) (A) (A) (A) (A) (A) (A) (A) (A) (A)
 The electronic state is 1-A.
 Alpha  occ. eigenvalues --  -20.52480 -20.52159 -20.50244 -20.50058 -15.58422
 Alpha  occ. eigenvalues --  -15.58015 -15.57472 -15.56147 -11.34690 -11.34231
 Alpha  occ. eigenvalues --  -11.33003 -11.32696 -11.29119 -11.28793 -11.25491
 Alpha  occ. eigenvalues --  -11.25358 -11.24720 -11.24528 -11.24088 -11.23734
 Alpha  occ. eigenvalues --  -11.23611 -11.23546 -11.23257 -11.23187 -11.22911
 Alpha  occ. eigenvalues --  -11.22284 -11.22245 -11.21807  -1.39865  -1.38592
 Alpha  occ. eigenvalues --   -1.38403  -1.36306  -1.24452  -1.24051  -1.23137
 Alpha  occ. eigenvalues --   -1.22868  -1.12165  -1.10018  -1.07816  -1.05381
 Alpha  occ. eigenvalues --   -1.01709  -0.99292  -0.98560  -0.96675  -0.95362
 Alpha  occ. eigenvalues --   -0.95137  -0.93629  -0.88228  -0.86495  -0.84338
 Alpha  occ. eigenvalues --   -0.83179  -0.80057  -0.79525  -0.77861  -0.77386
 Alpha  occ. eigenvalues --   -0.72570  -0.71801  -0.70478  -0.68641  -0.67564
 Alpha  occ. eigenvalues --   -0.67117  -0.65104  -0.64887  -0.64371  -0.63223
 Alpha  occ. eigenvalues --   -0.62856  -0.62685  -0.61920  -0.61717  -0.61549
 Alpha  occ. eigenvalues --   -0.60700  -0.60385  -0.59661  -0.59167  -0.58858
 Alpha  occ. eigenvalues --   -0.57753  -0.57458  -0.57016  -0.56665  -0.56273
 Alpha  occ. eigenvalues --   -0.55666  -0.55370  -0.55271  -0.55034  -0.54150
 Alpha  occ. eigenvalues --   -0.53865  -0.53605  -0.52897  -0.52409  -0.51525
 Alpha  occ. eigenvalues --   -0.51001  -0.50334  -0.50114  -0.49369  -0.49284
 Alpha  occ. eigenvalues --   -0.48509  -0.47429  -0.47141  -0.45864  -0.42043
 Alpha  occ. eigenvalues --   -0.41963  -0.41508  -0.39348  -0.38824  -0.38420
 Alpha  occ. eigenvalues --   -0.37777  -0.35954  -0.35595
 Alpha virt. eigenvalues --    0.16025   0.19146   0.19809   0.20912   0.21093
 Alpha virt. eigenvalues --    0.21344   0.22080   0.22478   0.23152   0.23590
 Alpha virt. eigenvalues --    0.24655   0.25099   0.25476   0.26562   0.26962
 Alpha virt. eigenvalues --    0.27221   0.27946   0.28228   0.28927   0.29727
 Alpha virt. eigenvalues --    0.30267   0.30767   0.30965   0.31363   0.31463
 Alpha virt. eigenvalues --    0.31785   0.32254   0.32696   0.33078   0.33416
 Alpha virt. eigenvalues --    0.33924   0.34194   0.34234   0.34791   0.34905
 Alpha virt. eigenvalues --    0.35482   0.35790   0.36157   0.36507   0.37296
 Alpha virt. eigenvalues --    0.38092   0.38436   0.38856   0.39354   0.39602
 Alpha virt. eigenvalues --    0.41082   0.41657   0.42285   0.43396   0.43707
 Alpha virt. eigenvalues --    0.44377   0.44763   0.45297   0.45697   0.46913
 Alpha virt. eigenvalues --    0.47592   0.48660   0.48984   0.51750   0.53111
 Alpha virt. eigenvalues --    0.55256   0.57213   0.58228   0.59633   0.60530
 Alpha virt. eigenvalues --    0.61688   0.63657   0.64262   0.68073   0.69525
 Alpha virt. eigenvalues --    0.70478   0.71191   0.71448   0.71601   0.72922
 Alpha virt. eigenvalues --    0.74633   0.75220   0.75396   0.76004   0.76732
 Alpha virt. eigenvalues --    0.76746   0.77216   0.77849   0.78074   0.79055
 Alpha virt. eigenvalues --    0.79844   0.80006   0.80706   0.83413   0.83648
 Alpha virt. eigenvalues --    0.84085   0.84585   0.85158   0.85603   0.86787
 Alpha virt. eigenvalues --    0.87561   0.88081   0.89588   0.90062   0.90651
 Alpha virt. eigenvalues --    0.91324   0.91591   0.92055   0.93005   0.94436
 Alpha virt. eigenvalues --    0.94663   0.95819   0.96387   0.97069   0.97289
 Alpha virt. eigenvalues --    0.98358   0.99051   0.99677   1.00252   1.00466
 Alpha virt. eigenvalues --    1.01483   1.01645   1.02548   1.03068   1.03556
 Alpha virt. eigenvalues --    1.03706   1.04372   1.04891   1.06023   1.06276
 Alpha virt. eigenvalues --    1.07045   1.07630   1.09536   1.10194   1.11576
 Alpha virt. eigenvalues --    1.12068   1.12654   1.12916   1.13351   1.13576
 Alpha virt. eigenvalues --    1.13924   1.14405   1.14532   1.14662   1.15179
 Alpha virt. eigenvalues --    1.15565   1.16507   1.16922   1.17359   1.17732
 Alpha virt. eigenvalues --    1.17983   1.18322   1.18678   1.18867   1.19356
 Alpha virt. eigenvalues --    1.19891   1.20332   1.21038   1.21184   1.21430
 Alpha virt. eigenvalues --    1.21844   1.22077   1.22498   1.22806   1.22922
 Alpha virt. eigenvalues --    1.23560   1.23890   1.24374   1.25339   1.25851
 Alpha virt. eigenvalues --    1.26603   1.27089   1.27891   1.28571   1.29380
 Alpha virt. eigenvalues --    1.29410   1.29748   1.30619   1.31572   1.33217
 Alpha virt. eigenvalues --    1.33903   1.35161   1.36044   1.36426   1.38349
 Alpha virt. eigenvalues --    1.40462   1.41233   1.41431   1.43037   1.44260
 Alpha virt. eigenvalues --    1.46440   1.46608   1.47187   1.48377   1.50327
 Alpha virt. eigenvalues --    1.51301   1.52693   1.53917   1.55356   1.56981
 Alpha virt. eigenvalues --    1.58775   1.59400   1.60659   1.61337   1.62639
 Alpha virt. eigenvalues --    1.64710   1.65576   1.67804   1.68684   1.69608
 Alpha virt. eigenvalues --    1.70617   1.72324   1.73584   1.74728   1.74973
 Alpha virt. eigenvalues --    1.75669   1.77092   1.78033   1.79894   1.80470
 Alpha virt. eigenvalues --    1.82103   1.83876   1.85715   1.88832   1.89766
 Alpha virt. eigenvalues --    1.90207   1.91016   1.92127   1.93706   1.95369
 Alpha virt. eigenvalues --    1.97312   1.98130   1.98284   1.99058   2.01479
 Alpha virt. eigenvalues --    2.03826   2.05050   2.06530   2.06739   2.07772
 Alpha virt. eigenvalues --    2.09787   2.10304   2.10604   2.11732   2.12169
 Alpha virt. eigenvalues --    2.12422   2.13814   2.14644   2.15446   2.15744
 Alpha virt. eigenvalues --    2.16966   2.18140   2.19205   2.19501   2.20542
 Alpha virt. eigenvalues --    2.21386   2.22414   2.22602   2.23247   2.23653
 Alpha virt. eigenvalues --    2.24865   2.25043   2.26087   2.26691   2.26851
 Alpha virt. eigenvalues --    2.28465   2.28819   2.30129   2.30692   2.32259
 Alpha virt. eigenvalues --    2.32994   2.33449   2.34031   2.35026   2.35725
 Alpha virt. eigenvalues --    2.36156   2.36755   2.36853   2.38687   2.38863
 Alpha virt. eigenvalues --    2.39440   2.40687   2.41520   2.43380   2.44432
 Alpha virt. eigenvalues --    2.45020   2.45870   2.47987   2.48747   2.50152
 Alpha virt. eigenvalues --    2.51194   2.52287   2.54143   2.55383   2.55470
 Alpha virt. eigenvalues --    2.56616   2.58117   2.58505   2.59110   2.60297
 Alpha virt. eigenvalues --    2.61232   2.62687   2.63559   2.64080   2.65134
 Alpha virt. eigenvalues --    2.66430   2.67414   2.68844   2.69711   2.71637
 Alpha virt. eigenvalues --    2.72918   2.73955   2.74807   2.75721   2.75876
 Alpha virt. eigenvalues --    2.77154   2.77506   2.78621   2.79034   2.79795
 Alpha virt. eigenvalues --    2.81437   2.82239   2.83859   2.85829   2.86582
 Alpha virt. eigenvalues --    2.87432   2.89919   2.90291   2.92777   2.95313
 Alpha virt. eigenvalues --    2.96426   2.97780   2.98414   3.01875   3.02832
 Alpha virt. eigenvalues --    3.02991   3.04387   3.04853   3.05750   3.08468
 Alpha virt. eigenvalues --    3.10486   3.12148   3.12641   3.14997   3.15987
 Alpha virt. eigenvalues --    3.17663   3.18666   3.21271   3.28740   3.30103
 Alpha virt. eigenvalues --    3.33895   3.37099   3.40106   3.41275   3.41724
 Alpha virt. eigenvalues --    3.42187   3.45343   3.55196   3.57000   3.57103
 Alpha virt. eigenvalues --    3.60769   4.37928   4.41362   4.48628   4.48855
 Alpha virt. eigenvalues --    4.51423   4.53987   4.57155   4.58199   4.61562
 Alpha virt. eigenvalues --    4.63542   4.66357   4.67686   4.69405   4.69696
 Alpha virt. eigenvalues --    4.71636   4.77177   4.79402   4.82410   4.84825
 Alpha virt. eigenvalues --    4.88874   4.92175   4.93428   4.96407   4.99595
 Alpha virt. eigenvalues --    5.02494   5.09058   5.22904   5.23223
          Condensed to atoms (all electrons):
 Mulliken atomic charges:
              1
     1  C   -0.295186
     2  N   -0.845787
     3  C    0.778576
     4  O   -0.568028
     5  C    0.103587
     6  C   -0.482189
     7  C   -0.347762
     8  C   -0.380280
     9  C   -0.434383
    10  C   -0.158969
    11  C   -0.173338
    12  C   -0.356927
    13  C   -0.310795
    14  C   -0.330282
    15  C    0.090982
    16  C   -0.510097
    17  N   -0.787298
    18  C    0.767221
    19  C   -0.595860
    20  O   -0.612869
    21  C    0.819953
    22  O   -0.640356
    23  N   -0.806153
    24  C   -0.275490
    25  N   -0.813101
    26  C    0.755338
    27  C   -0.586307
    28  O   -0.564913
    29  H    0.173202
    30  H    0.225677
    31  H    0.169459
    32  H    0.435663
    33  H    0.168160
    34  H    0.155585
    35  H    0.226110
    36  H    0.168292
    37  H    0.196625
    38  H    0.197779
    39  H    0.184516
    40  H    0.209330
    41  H    0.187619
    42  H    0.186781
    43  H    0.180180
    44  H    0.175313
    45  H    0.165907
    46  H    0.154067
    47  H    0.196432
    48  H    0.175445
    49  H    0.185395
    50  H    0.184741
    51  H    0.149478
    52  H    0.227993
    53  H    0.389169
    54  H    0.212504
    55  H    0.208990
    56  H    0.176665
    57  H    0.396700
    58  H    0.166913
    59  H    0.196258
    60  H    0.186539
    61  H    0.372956
    62  H    0.216242
    63  H    0.172255
    64  H    0.185773
 Sum of Mulliken atomic charges =   0.00000
 Mulliken charges with hydrogens summed into heavy atoms:
              1
     1  C    0.273151
     2  N   -0.410124
     3  C    0.778576
     4  O   -0.568028
     5  C    0.103587
     6  C    0.067667
     7  C    0.017155
     8  C    0.002015
     9  C   -0.037434
    10  C    0.027812
    11  C    0.006842
    12  C   -0.015707
    13  C    0.039705
    14  C    0.030558
    15  C    0.090982
    16  C    0.052115
    17  N   -0.398129
    18  C    0.767221
    19  C    0.002299
    20  O   -0.612869
    21  C    0.819953
    22  O   -0.640356
    23  N   -0.409453
    24  C    0.274221
    25  N   -0.440145
    26  C    0.755338
    27  C   -0.012037
    28  O   -0.564913
 Sum of Mulliken charges with hydrogens summed into heavy atoms =   0.00000
 Electronic spatial extent (au):  <R**2>=          21840.5426
 Charge=              0.0000 electrons
 Dipole moment (field-independent basis, Debye):
    X=              1.5420    Y=             -6.4025    Z=              0.6897  Tot=              6.6216
 Quadrupole moment (field-independent basis, Debye-Ang):
   XX=           -225.7116   YY=           -161.3678   ZZ=           -167.2844
   XY=             24.7187   XZ=              6.7888   YZ=              2.8938
 Traceless Quadrupole moment (field-independent basis, Debye-Ang):
   XX=            -40.9237   YY=             23.4201   ZZ=             17.5035
   XY=             24.7187   XZ=              6.7888   YZ=              2.8938
 Octapole moment (field-independent basis, Debye-Ang**2):
  XXX=            -57.5675  YYY=             37.1604  ZZZ=             11.7227  XYY=             73.8027
  XXY=           -308.7600  XXZ=             19.5800  XZZ=             -4.0284  YZZ=              2.8793
  YYZ=             -3.6182  XYZ=             56.6077
 Hexadecapole moment (field-independent basis, Debye-Ang**3):
 XXXX=         -28173.5996 YYYY=          -2203.0706 ZZZZ=          -1252.6928 XXXY=            850.0184
 XXXZ=           -515.4988 YYYX=            153.6771 YYYZ=             -0.6060 ZZZX=            -25.6171
 ZZZY=             16.7798 XXYY=          -4414.5544 XXZZ=          -4189.3021 YYZZ=           -589.1635
 XXYZ=             81.7962 YYXZ=             14.1878 ZZXY=              0.5206
 N-N= 2.703387359697D+03 E-N=-8.438622095637D+03  KE= 1.294428887628D+03
 1\1\GINC-MOSURA\SP\RHF\6-31G(d)\C20H36N4O4\MARIE\05-Dec-2019\0\\#SP HF
 /6-31G* Geom=(ModRedundant)\\paramfit run\\0,1\C,0,0.,0.,0.\N,0,1.4481
 87,0.,0.\C,0,2.1232,0.47592,1.072365\O,0,1.590179,0.696732,2.124447\C,
 0,3.650505,0.594143,0.921539\C,0,4.271987,-0.805839,0.880909\C,0,4.000
 045,1.408259,-0.353859\C,0,3.54029,0.881818,-1.725398\C,0,2.093588,1.1
 88511,-2.160861\C,0,1.757253,2.661155,-2.182657\C,0,1.745194,3.469957,
 -3.229773\C,0,2.06602,3.120855,-4.663284\C,0,0.83081,2.955567,-5.56688
 8\C,0,-0.006441,4.23779,-5.666019\C,0,-1.178178,4.265715,-6.681351\C,0
 ,-1.884549,5.623699,-6.538624\N,0,-0.630419,4.142729,-8.025362\C,0,-1.
 439596,3.992993,-9.114339\C,0,-0.743454,3.502819,-10.363307\O,0,-2.615
 181,4.230771,-9.089786\C,0,-2.088059,3.044923,-6.415817\O,0,-1.813475,
 1.971795,-6.881573\N,0,-3.125817,3.214962,-5.568394\C,0,-4.047146,2.12
 6238,-5.31534\N,0,4.216104,1.377325,2.02976\C,0,4.105677,1.021485,3.34
 1574\C,0,5.041758,1.74725,4.285574\O,0,3.318355,0.203636,3.725484\H,0,
 -0.403259,1.006147,0.\H,0,-0.36496,-0.516002,0.875939\H,0,-0.345658,-0
 .522086,-0.883346\H,0,1.904244,0.070913,-0.879357\H,0,3.848966,-1.3983
 81,0.084115\H,0,5.343881,-0.720908,0.729028\H,0,4.088191,-1.326238,1.8
 09527\H,0,5.086232,1.461,-0.379132\H,0,3.64927,2.426619,-0.219031\H,0,
 4.203324,1.325049,-2.462658\H,0,3.698911,-0.190016,-1.783571\H,0,1.394
 362,0.675357,-1.513466\H,0,1.958427,0.759083,-3.147349\H,0,1.494928,3.
 085906,-1.227206\H,0,1.473156,4.499088,-3.054716\H,0,2.643155,2.205178
 ,-4.707081\H,0,2.704509,3.901541,-5.074933\H,0,1.178358,2.644197,-6.54
 8027\H,0,0.221936,2.14217,-5.194748\H,0,0.642129,5.073839,-5.918831\H,
 0,-0.42529,4.45402,-4.690232\H,0,-1.198292,6.40539,-6.842914\H,0,-2.16
 0218,5.816857,-5.507082\H,0,-2.762629,5.684157,-7.16397\H,0,0.241069,3
 .667935,-8.086937\H,0,-1.337885,3.765227,-11.225197\H,0,-0.662459,2.42
 1171,-10.312288\H,0,0.253892,3.916986,-10.464039\H,0,-3.455519,4.13664
 2,-5.403737\H,0,-4.725071,2.423703,-4.526129\H,0,-3.499379,1.251068,-4
 .998079\H,0,-4.620327,1.869761,-6.200459\H,0,4.986994,1.961514,1.79311
 7\H,0,4.63333,1.703171,5.284682\H,0,5.194005,2.781545,3.998163\H,0,6.0
 05908,1.24904,4.283986\\Version=EM64L-G09RevA.02\State=1-A\HF=-1295.50
 39775\RMSD=9.540e-09\Dipole=1.8780878,1.2022713,-1.3468511\Quadrupole=
 23.3659722,8.4300285,-31.7960007,0.9489743,-8.7806101,13.2275461\PG=C0
 1 [X(C20H36N4O4)]\\@


 IF GOD HAD MEANT MAN TO SEE THE SUN RISE, HE
 WOULD HAVE SCHEDULED IT FOR A LATER HOUR.
 Job cpu time:  0 days  0 hours  5 minutes 33.5 seconds.
 File lengths (MBytes):  RWF=    132 Int=      0 D2E=      0 Chk=     10 Scr=      1
 Normal termination of Gaussian 09 at Thu Dec  5 17:02:28 2019.
