 Entering Gaussian System, Link 0=g09
 Input=PSI_-130.gau
 Output=PSI_-130.log
 Initial command:
 /home/marie/Utilities//g09/l1.exe /tmp/g09/Gau-3868.inp -scrdir=/tmp/g09/
 Entering Link 1 = /home/marie/Utilities//g09/l1.exe PID=      3870.
  
 Copyright (c) 1988,1990,1992,1993,1995,1998,2003,2009, Gaussian, Inc.
                  All Rights Reserved.
  
 This is part of the Gaussian(R) 09 program.  It is based on
 the Gaussian(R) 03 system (copyright 2003, Gaussian, Inc.),
 the Gaussian(R) 98 system (copyright 1998, Gaussian, Inc.),
 the Gaussian(R) 94 system (copyright 1995, Gaussian, Inc.),
 the Gaussian 92(TM) system (copyright 1992, Gaussian, Inc.),
 the Gaussian 90(TM) system (copyright 1990, Gaussian, Inc.),
 the Gaussian 88(TM) system (copyright 1988, Gaussian, Inc.),
 the Gaussian 86(TM) system (copyright 1986, Carnegie Mellon
 University), and the Gaussian 82(TM) system (copyright 1983,
 Carnegie Mellon University). Gaussian is a federally registered
 trademark of Gaussian, Inc.
  
 This software contains proprietary and confidential information,
 including trade secrets, belonging to Gaussian, Inc.
  
 This software is provided under written license and may be
 used, copied, transmitted, or stored only in accord with that
 written license.
  
 The following legend is applicable only to US Government
 contracts under FAR:
  
                    RESTRICTED RIGHTS LEGEND
  
 Use, reproduction and disclosure by the US Government is
 subject to restrictions as set forth in subparagraphs (a)
 and (c) of the Commercial Computer Software - Restricted
 Rights clause in FAR 52.227-19.
  
 Gaussian, Inc.
 340 Quinnipiac St., Bldg. 40, Wallingford CT 06492
  
  
 ---------------------------------------------------------------
 Warning -- This program may not be used in any manner that
 competes with the business of Gaussian, Inc. or will provide
 assistance to any competitor of Gaussian, Inc.  The licensee
 of this program is prohibited from giving any competitor of
 Gaussian, Inc. access to this program.  By using this program,
 the user acknowledges that Gaussian, Inc. is engaged in the
 business of creating and licensing software in the field of
 computational chemistry and represents and warrants to the
 licensee that it is not a competitor of Gaussian, Inc. and that
 it will not use this program in any manner prohibited above.
 ---------------------------------------------------------------
  

 Cite this work as:
 Gaussian 09, Revision A.02,
 M. J. Frisch, G. W. Trucks, H. B. Schlegel, G. E. Scuseria, 
 M. A. Robb, J. R. Cheeseman, G. Scalmani, V. Barone, B. Mennucci, 
 G. A. Petersson, H. Nakatsuji, M. Caricato, X. Li, H. P. Hratchian, 
 A. F. Izmaylov, J. Bloino, G. Zheng, J. L. Sonnenberg, M. Hada, 
 M. Ehara, K. Toyota, R. Fukuda, J. Hasegawa, M. Ishida, T. Nakajima, 
 Y. Honda, O. Kitao, H. Nakai, T. Vreven, J. A. Montgomery, Jr., 
 J. E. Peralta, F. Ogliaro, M. Bearpark, J. J. Heyd, E. Brothers, 
 K. N. Kudin, V. N. Staroverov, R. Kobayashi, J. Normand, 
 K. Raghavachari, A. Rendell, J. C. Burant, S. S. Iyengar, J. Tomasi, 
 M. Cossi, N. Rega, J. M. Millam, M. Klene, J. E. Knox, J. B. Cross, 
 V. Bakken, C. Adamo, J. Jaramillo, R. Gomperts, R. E. Stratmann, 
 O. Yazyev, A. J. Austin, R. Cammi, C. Pomelli, J. W. Ochterski, 
 R. L. Martin, K. Morokuma, V. G. Zakrzewski, G. A. Voth, 
 P. Salvador, J. J. Dannenberg, S. Dapprich, A. D. Daniels, 
 O. Farkas, J. B. Foresman, J. V. Ortiz, J. Cioslowski, 
 and D. J. Fox, Gaussian, Inc., Wallingford CT, 2009.
 
 ******************************************
 Gaussian 09:  EM64L-G09RevA.02 11-Jun-2009
                 5-Dec-2019 
 ******************************************
 %chk=PSI_-130
 %NoSave
 ---------------------------------
 #SP HF/6-31G* Geom=(ModRedundant)
 ---------------------------------
 1/18=120,38=1/1;
 2/12=2,17=6,18=5,40=1/2;
 3/5=1,6=6,7=1,11=9,16=1,25=1,30=1/1,2,3;
 4//1;
 5/5=2,38=5/2;
 6/7=2,8=2,9=2,10=2,28=1/1;
 99/5=1,9=1/99;
 ------------
 paramfit run
 ------------
 Symbolic Z-matrix:
 Charge =  0 Multiplicity = 1
 C-CT--0.3208          0.        0.        0. 
 N-N--0.5622           1.44819   0.        0. 
 C-C-0.8053            2.1232    0.47592   1.07237 
 O-O--0.6151           1.59018   0.69673   2.12445 
 C-CX-0.0839           3.65051   0.59414   0.92154 
 C-CU--0.3230          4.3373   -0.06832   2.12041 
 C-CU--0.0657          4.1061   -0.04455  -0.41865 
 C-CU--0.0109          3.83243  -1.53924  -0.66489 
 C-CU-0.0816           2.43273  -1.93543  -1.1753 
 C-CM--0.2354          2.03266  -1.25477  -2.46329 
 C-CM--0.2653          2.10343  -1.7453   -3.69013 
 C-CU-0.1214           2.60312  -3.10783  -4.10673 
 C-CU--0.0354          1.48924  -4.1159   -4.44233 
 C-CU--0.0984          0.60994  -3.65877  -5.61398 
 C-CU-0.1300          -0.43713  -4.65744  -6.1716 
 C-CU--0.3561         -1.21795  -3.9392   -7.28421 
 N-N--0.7186           0.26687  -5.80178  -6.73411 
 C-C-0.8537           -0.40367  -6.90823  -7.16908 
 C-CT--0.3868          0.45378  -8.13769  -7.36405 
 O-O--0.6323          -1.58409  -6.91219  -7.38295 
 C-C-0.7903           -1.31345  -5.15615  -5.00024 
 O-O--0.6136          -0.9372   -6.06058  -4.30428 
 N-N--0.5650          -2.44868  -4.47324  -4.7378 
 C-CT--0.3231         -3.3411   -4.91761  -3.68693 
 N-N--0.7191           4.04752   2.0057    0.81517 
 C-C-0.8539            3.80356   2.93544   1.7825 
 C-CT--0.3903          4.58978   4.22318   1.64942 
 O-O--0.6290           3.01638   2.75574   2.66805 
 H-H1-0.1459          -0.40326   1.00615   0. 
 H-H1-0.1459          -0.36496  -0.516     0.87594 
 H-H1-0.1459          -0.34566  -0.52209  -0.88335 
 H-H-0.3572            1.90424   0.07091  -0.87936 
 H-HC-0.0997           4.037    -1.10003   2.22201 
 H-HC-0.0997           5.4144   -0.02374   1.98963 
 H-HC-0.0997           4.07235   0.4418    3.03502 
 H-HC-0.0347           5.18432   0.09391  -0.45748 
 H-HC-0.0347           3.69491   0.53985  -1.23576 
 H-HC-0.0243           4.55448  -1.86554  -1.40772 
 H-HC-0.0243           4.04663  -2.10859   0.23364 
 H-HC-0.0171           1.68838  -1.72564  -0.41814 
 H-HC-0.0171           2.43226  -3.012    -1.30508 
 H-HA-0.1313           1.64251  -0.25598  -2.35226 
 H-HA-0.1359           1.76523  -1.11138  -4.49482 
 H-HC-0.0092           3.22364  -3.53488  -3.32823 
 H-HC-0.0092           3.24756  -2.98886  -4.97687 
 H-HC-0.0318           1.96161  -5.06916  -4.66266 
 H-HC-0.0318           0.88027  -4.28149  -3.56337 
 H-HC-0.0435           1.2435   -3.37482  -6.45154 
 H-HC-0.0435           0.07189  -2.76671  -5.31552 
 H-HC-0.1066          -0.53852  -3.72199  -8.10017 
 H-HC-0.1066          -1.61927  -2.99344  -6.93513 
 H-HC-0.1066          -2.02006  -4.55176  -7.66778 
 H-H-0.3529            1.16089  -5.9861   -6.33982 
 H-HC-0.1047          -0.04908  -8.81618  -8.03625 
 H-HC-0.1047           0.57885  -8.6281   -6.40333 
 H-HC-0.1047           1.43563  -7.89293  -7.7545 
 H-H-0.3615           -2.83787  -3.90935  -5.45604 
 H-H1-0.1469          -4.11853  -4.17616  -3.5574 
 H-H1-0.1469          -2.79318  -5.01899  -2.76165 
 H-H1-0.1469          -3.79594  -5.87432  -3.92264 
 H-H-0.3570            4.81237   2.19185   0.20533 
 H-HC-0.1060           4.07155   5.00555   2.1845 
 H-HC-0.1060           4.72558   4.51621   0.61442 
 H-HC-0.1060           5.56993   4.0898    2.09586 
 
 The following ModRedundant input section has been read:
 D    *    3    5    * F                                                       
 Stoichiometry    C20H36N4O4
 Framework group  C1[X(C20H36N4O4)]
 Deg. of freedom   186
 Full point group                 C1      NOp   1
 Largest Abelian subgroup         C1      NOp   1
 Largest concise Abelian subgroup C1      NOp   1
                         Standard orientation:                         
 ---------------------------------------------------------------------
 Center     Atomic      Atomic             Coordinates (Angstroms)
 Number     Number       Type             X           Y           Z
 ---------------------------------------------------------------------
      1          6    20001001       -2.576837    2.428088    0.223111
      2          7    20001014       -3.110721    1.099751    0.004630
      3          6    20001002       -4.382021    0.946971   -0.434190
      4          8    20001024       -5.028874    1.859499   -0.868493
      5          6    90000001       -4.921462   -0.494004   -0.478698
      6          6    90000002       -5.542310   -0.767255   -1.852642
      7          6    90000002       -3.783107   -1.500797   -0.159138
      8          6    90000002       -2.548111   -1.547851   -1.076854
      9          6    90000002       -1.435312   -0.509359   -0.832214
     10          6    20001004       -0.872685   -0.529900    0.569680
     11          6    20001004        0.235940   -1.120926    0.984885
     12          6    90000002        1.213391   -1.922798    0.159448
     13          6    90000002        2.501707   -1.165493   -0.209735
     14          6    90000002        3.308699   -0.733807    1.022063
     15          6    90000002        4.714008   -0.119459    0.793305
     16          6    90000002        5.275907    0.279962    2.167417
     17          7    20001014        5.571583   -1.133168    0.194566
     18          6    20001002        6.826439   -0.833219   -0.250882
     19          6    20001001        7.438151   -1.862068   -1.173966
     20          8    20001024        7.406475    0.169039    0.062453
     21          6    20001002        4.581421    1.053341   -0.204536
     22          8    20001024        4.566746    0.843635   -1.387640
     23          7    20001014        4.382003    2.286844    0.307990
     24          6    20001001        4.300244    3.436872   -0.568909
     25          7    20001014       -5.913348   -0.703314    0.586094
     26          6    20001002       -7.070574    0.010136    0.693279
     27          6    20001001       -8.107795   -0.583217    1.623991
     28          8    20001024       -7.252935    1.038339    0.105329
     29          1    20001035       -3.081303    2.936683    1.036619
     30          1    20001035       -2.690152    3.019059   -0.673904
     31          1    20001035       -1.522754    2.343045    0.455556
     32          1    20001029       -2.739790    0.362585    0.557153
     33          1    20001034       -4.829475   -0.596065   -2.644787
     34          1    20001034       -5.881314   -1.797946   -1.897276
     35          1    20001034       -6.384322   -0.112106   -2.022120
     36          1    20001034       -4.244643   -2.485201   -0.193129
     37          1    20001034       -3.467198   -1.348437    0.868125
     38          1    20001034       -2.108237   -2.532734   -0.949832
     39          1    20001034       -2.855338   -1.487025   -2.115741
     40          1    20001034       -1.800879    0.485272   -1.052289
     41          1    20001034       -0.649947   -0.705850   -1.553622
     42          1    20001033       -1.451084    0.007148    1.303948
     43          1    20001033        0.484533   -1.024048    2.030149
     44          1    20001034        0.743859   -2.259897   -0.756724
     45          1    20001034        1.477544   -2.822680    0.713552
     46          1    20001034        3.092963   -1.812525   -0.851717
     47          1    20001034        2.248872   -0.301271   -0.809754
     48          1    20001034        3.448091   -1.588797    1.680163
     49          1    20001034        2.729397   -0.005765    1.577683
     50          1    20001034        5.427344   -0.618223    2.754707
     51          1    20001034        4.577659    0.908911    2.709868
     52          1    20001034        6.224464    0.787893    2.078068
     53          1    20001029        5.099297   -1.831261   -0.333000
     54          1    20001034        8.511221   -1.745564   -1.171253
     55          1    20001034        7.071157   -1.685355   -2.180551
     56          1    20001034        7.177087   -2.874832   -0.886674
     57          1    20001029        4.637333    2.453151    1.252690
     58          1    20001035        4.019369    4.300594    0.019323
     59          1    20001035        3.548421    3.266115   -1.325368
     60          1    20001035        5.245808    3.634092   -1.063650
     61          1    20001029       -5.910388   -1.607105    1.004065
     62          1    20001034       -8.780639    0.199946    1.941652
     63          1    20001034       -7.659419   -1.054177    2.491577
     64          1    20001034       -8.679598   -1.333802    1.087834
 ---------------------------------------------------------------------
 Rotational constants (GHZ):      0.4438922      0.0498695      0.0478401
 Standard basis: 6-31G(d) (6D, 7F)
 There are   492 symmetry adapted basis functions of A   symmetry.
 Integral buffers will be    131072 words long.
 Raffenetti 1 integral format.
 Two-electron integral symmetry is turned on.
   492 basis functions,   928 primitive gaussians,   492 cartesian basis functions
   108 alpha electrons      108 beta electrons
       nuclear repulsion energy      2708.3244789558 Hartrees.
 NAtoms=   64 NActive=   64 NUniq=   64 SFac= 7.50D-01 NAtFMM=   80 NAOKFM=F Big=T
 One-electron integrals computed using PRISM.
 NBasis=   492 RedAO= T  NBF=   492
 NBsUse=   492 1.00D-06 NBFU=   492
 Harris functional with IExCor=  205 diagonalized for initial guess.
 ExpMin= 1.61D-01 ExpMax= 5.48D+03 ExpMxC= 8.25D+02 IAcc=1 IRadAn=         1 AccDes= 0.00D+00
 HarFok:  IExCor=  205 AccDes= 0.00D+00 IRadAn=         1 IDoV= 1
 ScaDFX=  1.000000  1.000000  1.000000  1.000000
 FoFCou: FMM=F IPFlag=           0 FMFlag=      100000 FMFlg1=           1
         NFxFlg=           0 DoJE=T BraDBF=F KetDBF=T FulRan=T
         Omega=  0.000000  0.000000  1.000000  0.000000  0.000000 ICntrl=     500 IOpCl=  0
         NMat0=    1 NMatS0=    1 NMatT0=    0 NMatD0=    1 NMtDS0=    0 NMtDT0=    0
         I1Cent=           4 NGrid=           0.
 Petite list used in FoFCou.
 Initial guess orbital symmetries:
       Occupied  (A) (A) (A) (A) (A) (A) (A) (A) (A) (A) (A) (A)
                 (A) (A) (A) (A) (A) (A) (A) (A) (A) (A) (A) (A)
                 (A) (A) (A) (A) (A) (A) (A) (A) (A) (A) (A) (A)
                 (A) (A) (A) (A) (A) (A) (A) (A) (A) (A) (A) (A)
                 (A) (A) (A) (A) (A) (A) (A) (A) (A) (A) (A) (A)
                 (A) (A) (A) (A) (A) (A) (A) (A) (A) (A) (A) (A)
                 (A) (A) (A) (A) (A) (A) (A) (A) (A) (A) (A) (A)
                 (A) (A) (A) (A) (A) (A) (A) (A) (A) (A) (A) (A)
                 (A) (A) (A) (A) (A) (A) (A) (A) (A) (A) (A) (A)
       Virtual   (A) (A) (A) (A) (A) (A) (A) (A) (A) (A) (A) (A)
                 (A) (A) (A) (A) (A) (A) (A) (A) (A) (A) (A) (A)
                 (A) (A) (A) (A) (A) (A) (A) (A) (A) (A) (A) (A)
                 (A) (A) (A) (A) (A) (A) (A) (A) (A) (A) (A) (A)
                 (A) (A) (A) (A) (A) (A) (A) (A) (A) (A) (A) (A)
                 (A) (A) (A) (A) (A) (A) (A) (A) (A) (A) (A) (A)
                 (A) (A) (A) (A) (A) (A) (A) (A) (A) (A) (A) (A)
                 (A) (A) (A) (A) (A) (A) (A) (A) (A) (A) (A) (A)
                 (A) (A) (A) (A) (A) (A) (A) (A) (A) (A) (A) (A)
                 (A) (A) (A) (A) (A) (A) (A) (A) (A) (A) (A) (A)
                 (A) (A) (A) (A) (A) (A) (A) (A) (A) (A) (A) (A)
                 (A) (A) (A) (A) (A) (A) (A) (A) (A) (A) (A) (A)
                 (A) (A) (A) (A) (A) (A) (A) (A) (A) (A) (A) (A)
                 (A) (A) (A) (A) (A) (A) (A) (A) (A) (A) (A) (A)
                 (A) (A) (A) (A) (A) (A) (A) (A) (A) (A) (A) (A)
                 (A) (A) (A) (A) (A) (A) (A) (A) (A) (A) (A) (A)
                 (A) (A) (A) (A) (A) (A) (A) (A) (A) (A) (A) (A)
                 (A) (A) (A) (A) (A) (A) (A) (A) (A) (A) (A) (A)
                 (A) (A) (A) (A) (A) (A) (A) (A) (A) (A) (A) (A)
                 (A) (A) (A) (A) (A) (A) (A) (A) (A) (A) (A) (A)
                 (A) (A) (A) (A) (A) (A) (A) (A) (A) (A) (A) (A)
                 (A) (A) (A) (A) (A) (A) (A) (A) (A) (A) (A) (A)
                 (A) (A) (A) (A) (A) (A) (A) (A) (A) (A) (A) (A)
                 (A) (A) (A) (A) (A) (A) (A) (A) (A) (A) (A) (A)
                 (A) (A) (A) (A) (A) (A) (A) (A) (A) (A) (A) (A)
                 (A) (A) (A) (A) (A) (A) (A) (A) (A) (A) (A) (A)
                 (A) (A) (A) (A) (A) (A) (A) (A) (A) (A) (A) (A)
                 (A) (A) (A) (A) (A) (A) (A) (A) (A) (A) (A) (A)
                 (A) (A) (A) (A) (A) (A) (A) (A) (A) (A) (A) (A)
                 (A) (A) (A) (A) (A) (A) (A) (A) (A) (A) (A) (A)
                 (A) (A) (A) (A) (A) (A) (A) (A) (A) (A) (A) (A)
                 (A) (A) (A) (A) (A) (A) (A) (A) (A) (A) (A) (A)
 The electronic state of the initial guess is 1-A.
 Requested convergence on RMS density matrix=1.00D-08 within 128 cycles.
 Requested convergence on MAX density matrix=1.00D-06.
 Requested convergence on             energy=1.00D-06.
 No special actions if energy rises.
 Integral accuracy reduced to 1.0D-05 until final iterations.
 Initial convergence to 1.0D-05 achieved.  Increase integral accuracy.
 SCF Done:  E(RHF) =  -1295.54732900     A.U. after   15 cycles
             Convg  =    0.3611D-08             -V/T =  2.0009

 **********************************************************************

            Population analysis using the SCF density.

 **********************************************************************

 Orbital symmetries:
       Occupied  (A) (A) (A) (A) (A) (A) (A) (A) (A) (A) (A) (A)
                 (A) (A) (A) (A) (A) (A) (A) (A) (A) (A) (A) (A)
                 (A) (A) (A) (A) (A) (A) (A) (A) (A) (A) (A) (A)
                 (A) (A) (A) (A) (A) (A) (A) (A) (A) (A) (A) (A)
                 (A) (A) (A) (A) (A) (A) (A) (A) (A) (A) (A) (A)
                 (A) (A) (A) (A) (A) (A) (A) (A) (A) (A) (A) (A)
                 (A) (A) (A) (A) (A) (A) (A) (A) (A) (A) (A) (A)
                 (A) (A) (A) (A) (A) (A) (A) (A) (A) (A) (A) (A)
                 (A) (A) (A) (A) (A) (A) (A) (A) (A) (A) (A) (A)
       Virtual   (A) (A) (A) (A) (A) (A) (A) (A) (A) (A) (A) (A)
                 (A) (A) (A) (A) (A) (A) (A) (A) (A) (A) (A) (A)
                 (A) (A) (A) (A) (A) (A) (A) (A) (A) (A) (A) (A)
                 (A) (A) (A) (A) (A) (A) (A) (A) (A) (A) (A) (A)
                 (A) (A) (A) (A) (A) (A) (A) (A) (A) (A) (A) (A)
                 (A) (A) (A) (A) (A) (A) (A) (A) (A) (A) (A) (A)
                 (A) (A) (A) (A) (A) (A) (A) (A) (A) (A) (A) (A)
                 (A) (A) (A) (A) (A) (A) (A) (A) (A) (A) (A) (A)
                 (A) (A) (A) (A) (A) (A) (A) (A) (A) (A) (A) (A)
                 (A) (A) (A) (A) (A) (A) (A) (A) (A) (A) (A) (A)
                 (A) (A) (A) (A) (A) (A) (A) (A) (A) (A) (A) (A)
                 (A) (A) (A) (A) (A) (A) (A) (A) (A) (A) (A) (A)
                 (A) (A) (A) (A) (A) (A) (A) (A) (A) (A) (A) (A)
                 (A) (A) (A) (A) (A) (A) (A) (A) (A) (A) (A) (A)
                 (A) (A) (A) (A) (A) (A) (A) (A) (A) (A) (A) (A)
                 (A) (A) (A) (A) (A) (A) (A) (A) (A) (A) (A) (A)
                 (A) (A) (A) (A) (A) (A) (A) (A) (A) (A) (A) (A)
                 (A) (A) (A) (A) (A) (A) (A) (A) (A) (A) (A) (A)
                 (A) (A) (A) (A) (A) (A) (A) (A) (A) (A) (A) (A)
                 (A) (A) (A) (A) (A) (A) (A) (A) (A) (A) (A) (A)
                 (A) (A) (A) (A) (A) (A) (A) (A) (A) (A) (A) (A)
                 (A) (A) (A) (A) (A) (A) (A) (A) (A) (A) (A) (A)
                 (A) (A) (A) (A) (A) (A) (A) (A) (A) (A) (A) (A)
                 (A) (A) (A) (A) (A) (A) (A) (A) (A) (A) (A) (A)
                 (A) (A) (A) (A) (A) (A) (A) (A) (A) (A) (A) (A)
                 (A) (A) (A) (A) (A) (A) (A) (A) (A) (A) (A) (A)
                 (A) (A) (A) (A) (A) (A) (A) (A) (A) (A) (A) (A)
                 (A) (A) (A) (A) (A) (A) (A) (A) (A) (A) (A) (A)
                 (A) (A) (A) (A) (A) (A) (A) (A) (A) (A) (A) (A)
                 (A) (A) (A) (A) (A) (A) (A) (A) (A) (A) (A) (A)
                 (A) (A) (A) (A) (A) (A) (A) (A) (A) (A) (A) (A)
                 (A) (A) (A) (A) (A) (A) (A) (A) (A) (A) (A) (A)
 The electronic state is 1-A.
 Alpha  occ. eigenvalues --  -20.52462 -20.52120 -20.50977 -20.50564 -15.58406
 Alpha  occ. eigenvalues --  -15.58312 -15.58002 -15.57105 -11.34670 -11.34202
 Alpha  occ. eigenvalues --  -11.33874 -11.32904 -11.29122 -11.28785 -11.25449
 Alpha  occ. eigenvalues --  -11.25399 -11.24313 -11.24109 -11.24003 -11.23802
 Alpha  occ. eigenvalues --  -11.23582 -11.23523 -11.23213 -11.22901 -11.22876
 Alpha  occ. eigenvalues --  -11.22278 -11.21773 -11.21085  -1.39837  -1.38679
 Alpha  occ. eigenvalues --   -1.38563  -1.37161  -1.24302  -1.24039  -1.23117
 Alpha  occ. eigenvalues --   -1.23059  -1.11821  -1.09702  -1.07846  -1.04798
 Alpha  occ. eigenvalues --   -1.01448  -0.99295  -0.98708  -0.95937  -0.95791
 Alpha  occ. eigenvalues --   -0.95143  -0.93027  -0.87649  -0.86170  -0.84478
 Alpha  occ. eigenvalues --   -0.82067  -0.79973  -0.78718  -0.77521  -0.77370
 Alpha  occ. eigenvalues --   -0.73141  -0.71891  -0.70656  -0.68468  -0.68070
 Alpha  occ. eigenvalues --   -0.67092  -0.65683  -0.64845  -0.64235  -0.64002
 Alpha  occ. eigenvalues --   -0.62717  -0.62397  -0.62066  -0.61881  -0.61604
 Alpha  occ. eigenvalues --   -0.60705  -0.59840  -0.59331  -0.59107  -0.58835
 Alpha  occ. eigenvalues --   -0.57671  -0.57315  -0.57057  -0.56765  -0.56461
 Alpha  occ. eigenvalues --   -0.55740  -0.55349  -0.55232  -0.54895  -0.54345
 Alpha  occ. eigenvalues --   -0.53800  -0.53405  -0.52903  -0.52347  -0.51452
 Alpha  occ. eigenvalues --   -0.50318  -0.50250  -0.50116  -0.49679  -0.49275
 Alpha  occ. eigenvalues --   -0.48671  -0.47642  -0.47173  -0.45846  -0.42353
 Alpha  occ. eigenvalues --   -0.42014  -0.41490  -0.39328  -0.39005  -0.38797
 Alpha  occ. eigenvalues --   -0.37470  -0.36968  -0.35505
 Alpha virt. eigenvalues --    0.15584   0.19161   0.19801   0.20791   0.20950
 Alpha virt. eigenvalues --    0.21093   0.21307   0.22325   0.22954   0.23561
 Alpha virt. eigenvalues --    0.25162   0.25491   0.25823   0.26768   0.27285
 Alpha virt. eigenvalues --    0.27362   0.28203   0.28616   0.29275   0.29722
 Alpha virt. eigenvalues --    0.30582   0.30807   0.30972   0.31150   0.31381
 Alpha virt. eigenvalues --    0.31802   0.32473   0.32975   0.33053   0.33457
 Alpha virt. eigenvalues --    0.33563   0.33872   0.34313   0.34826   0.34958
 Alpha virt. eigenvalues --    0.35579   0.35916   0.36139   0.36792   0.37181
 Alpha virt. eigenvalues --    0.37903   0.38665   0.38971   0.39375   0.40618
 Alpha virt. eigenvalues --    0.40686   0.41615   0.41808   0.43154   0.43495
 Alpha virt. eigenvalues --    0.44182   0.44789   0.45258   0.46760   0.46979
 Alpha virt. eigenvalues --    0.48031   0.48659   0.49509   0.51698   0.52268
 Alpha virt. eigenvalues --    0.53171   0.55199   0.57286   0.58975   0.60411
 Alpha virt. eigenvalues --    0.61458   0.63515   0.65163   0.68685   0.69477
 Alpha virt. eigenvalues --    0.70578   0.71161   0.71676   0.72135   0.73172
 Alpha virt. eigenvalues --    0.74558   0.74888   0.75324   0.76054   0.76146
 Alpha virt. eigenvalues --    0.76821   0.77279   0.78007   0.78186   0.79008
 Alpha virt. eigenvalues --    0.79930   0.80136   0.81535   0.83118   0.83650
 Alpha virt. eigenvalues --    0.84257   0.84697   0.84892   0.86222   0.86392
 Alpha virt. eigenvalues --    0.87539   0.87919   0.88508   0.89952   0.90627
 Alpha virt. eigenvalues --    0.91763   0.91939   0.92344   0.93018   0.94106
 Alpha virt. eigenvalues --    0.94986   0.95784   0.96399   0.97238   0.97580
 Alpha virt. eigenvalues --    0.98497   0.99233   0.99783   1.00318   1.00850
 Alpha virt. eigenvalues --    1.01209   1.01730   1.02268   1.02950   1.03467
 Alpha virt. eigenvalues --    1.03842   1.04928   1.05795   1.06573   1.07060
 Alpha virt. eigenvalues --    1.07908   1.08831   1.09206   1.09922   1.11718
 Alpha virt. eigenvalues --    1.12119   1.12815   1.13373   1.13883   1.14099
 Alpha virt. eigenvalues --    1.14427   1.14473   1.14891   1.14993   1.15385
 Alpha virt. eigenvalues --    1.15775   1.15919   1.16754   1.17553   1.17998
 Alpha virt. eigenvalues --    1.18158   1.18592   1.19033   1.19150   1.19385
 Alpha virt. eigenvalues --    1.20079   1.20449   1.20836   1.21067   1.21303
 Alpha virt. eigenvalues --    1.21658   1.21903   1.22219   1.22543   1.23159
 Alpha virt. eigenvalues --    1.23937   1.24241   1.24554   1.25257   1.25744
 Alpha virt. eigenvalues --    1.26741   1.27901   1.28179   1.29106   1.29501
 Alpha virt. eigenvalues --    1.29739   1.30490   1.30757   1.30848   1.31740
 Alpha virt. eigenvalues --    1.33068   1.34078   1.35257   1.37638   1.38276
 Alpha virt. eigenvalues --    1.38881   1.41458   1.41849   1.42968   1.43554
 Alpha virt. eigenvalues --    1.44995   1.46361   1.48011   1.48777   1.49343
 Alpha virt. eigenvalues --    1.50217   1.52107   1.53387   1.53962   1.56038
 Alpha virt. eigenvalues --    1.57383   1.58400   1.60287   1.60839   1.61642
 Alpha virt. eigenvalues --    1.64601   1.65166   1.66465   1.68577   1.69707
 Alpha virt. eigenvalues --    1.70770   1.72471   1.73520   1.73719   1.74378
 Alpha virt. eigenvalues --    1.76021   1.78090   1.78302   1.79953   1.81826
 Alpha virt. eigenvalues --    1.82033   1.84128   1.84728   1.87164   1.88671
 Alpha virt. eigenvalues --    1.89228   1.90916   1.92759   1.94365   1.94909
 Alpha virt. eigenvalues --    1.96924   1.98128   1.99640   2.01489   2.03672
 Alpha virt. eigenvalues --    2.04063   2.04802   2.06170   2.07390   2.07786
 Alpha virt. eigenvalues --    2.09410   2.09896   2.11418   2.11744   2.11880
 Alpha virt. eigenvalues --    2.13735   2.14307   2.15758   2.15873   2.16351
 Alpha virt. eigenvalues --    2.17443   2.18537   2.18975   2.19430   2.20050
 Alpha virt. eigenvalues --    2.21382   2.21634   2.22407   2.22671   2.24240
 Alpha virt. eigenvalues --    2.24518   2.25127   2.25780   2.26910   2.27482
 Alpha virt. eigenvalues --    2.28384   2.29922   2.30363   2.31156   2.32312
 Alpha virt. eigenvalues --    2.33078   2.33580   2.34470   2.35871   2.36389
 Alpha virt. eigenvalues --    2.36774   2.38323   2.38606   2.39181   2.39614
 Alpha virt. eigenvalues --    2.40072   2.41380   2.42508   2.43238   2.43448
 Alpha virt. eigenvalues --    2.45589   2.46291   2.47755   2.49008   2.50021
 Alpha virt. eigenvalues --    2.51828   2.52343   2.54451   2.55040   2.55620
 Alpha virt. eigenvalues --    2.56744   2.58261   2.58606   2.59384   2.60728
 Alpha virt. eigenvalues --    2.61739   2.62734   2.63746   2.64602   2.64869
 Alpha virt. eigenvalues --    2.67423   2.67855   2.68711   2.69767   2.71460
 Alpha virt. eigenvalues --    2.72734   2.73976   2.74439   2.75782   2.76023
 Alpha virt. eigenvalues --    2.76871   2.77383   2.78931   2.80111   2.80361
 Alpha virt. eigenvalues --    2.81949   2.82192   2.84545   2.85866   2.86732
 Alpha virt. eigenvalues --    2.87715   2.90429   2.90508   2.94080   2.95269
 Alpha virt. eigenvalues --    2.96067   2.97618   2.98240   3.01340   3.02895
 Alpha virt. eigenvalues --    3.03288   3.04772   3.05043   3.05774   3.07998
 Alpha virt. eigenvalues --    3.10499   3.10876   3.12614   3.15060   3.15862
 Alpha virt. eigenvalues --    3.17066   3.18154   3.22617   3.27990   3.30104
 Alpha virt. eigenvalues --    3.33917   3.37497   3.39955   3.40384   3.40995
 Alpha virt. eigenvalues --    3.42221   3.45922   3.55222   3.57122   3.57244
 Alpha virt. eigenvalues --    3.57676   4.37943   4.43141   4.48672   4.49494
 Alpha virt. eigenvalues --    4.51449   4.53791   4.56592   4.60444   4.62456
 Alpha virt. eigenvalues --    4.63851   4.66051   4.67044   4.69633   4.70802
 Alpha virt. eigenvalues --    4.71665   4.77489   4.81004   4.82778   4.84408
 Alpha virt. eigenvalues --    4.88860   4.92804   4.93458   4.95914   4.99550
 Alpha virt. eigenvalues --    5.01859   5.05455   5.23011   5.27834
          Condensed to atoms (all electrons):
 Mulliken atomic charges:
              1
     1  C   -0.284582
     2  N   -0.865253
     3  C    0.802722
     4  O   -0.571747
     5  C    0.122255
     6  C   -0.480456
     7  C   -0.391784
     8  C   -0.295866
     9  C   -0.405901
    10  C   -0.196836
    11  C   -0.179378
    12  C   -0.355961
    13  C   -0.312375
    14  C   -0.329963
    15  C    0.091362
    16  C   -0.509791
    17  N   -0.787458
    18  C    0.767194
    19  C   -0.595884
    20  O   -0.612974
    21  C    0.819905
    22  O   -0.639086
    23  N   -0.806721
    24  C   -0.275967
    25  N   -0.822101
    26  C    0.737789
    27  C   -0.588395
    28  O   -0.557378
    29  H    0.184870
    30  H    0.208590
    31  H    0.168745
    32  H    0.406259
    33  H    0.167705
    34  H    0.148261
    35  H    0.237393
    36  H    0.173153
    37  H    0.177426
    38  H    0.171395
    39  H    0.178101
    40  H    0.261383
    41  H    0.176996
    42  H    0.174288
    43  H    0.177826
    44  H    0.182219
    45  H    0.165192
    46  H    0.155175
    47  H    0.199709
    48  H    0.175005
    49  H    0.182971
    50  H    0.184526
    51  H    0.148336
    52  H    0.228196
    53  H    0.389425
    54  H    0.212404
    55  H    0.209554
    56  H    0.176612
    57  H    0.396099
    58  H    0.165972
    59  H    0.198089
    60  H    0.186735
    61  H    0.375688
    62  H    0.216839
    63  H    0.171914
    64  H    0.191584
 Sum of Mulliken atomic charges =   0.00000
 Mulliken charges with hydrogens summed into heavy atoms:
              1
     1  C    0.277622
     2  N   -0.458994
     3  C    0.802722
     4  O   -0.571747
     5  C    0.122255
     6  C    0.072902
     7  C   -0.041205
     8  C    0.053630
     9  C    0.032478
    10  C   -0.022548
    11  C   -0.001553
    12  C   -0.008550
    13  C    0.042509
    14  C    0.028013
    15  C    0.091362
    16  C    0.051268
    17  N   -0.398033
    18  C    0.767194
    19  C    0.002685
    20  O   -0.612974
    21  C    0.819905
    22  O   -0.639086
    23  N   -0.410622
    24  C    0.274828
    25  N   -0.446413
    26  C    0.737789
    27  C   -0.008059
    28  O   -0.557378
 Sum of Mulliken charges with hydrogens summed into heavy atoms =   0.00000
 Electronic spatial extent (au):  <R**2>=          21757.4647
 Charge=              0.0000 electrons
 Dipole moment (field-independent basis, Debye):
    X=              1.1653    Y=             -6.0975    Z=              4.3244  Tot=              7.5655
 Quadrupole moment (field-independent basis, Debye-Ang):
   XX=           -222.8711   YY=           -161.8911   ZZ=           -169.1641
   XY=             25.3923   XZ=             -8.3390   YZ=              8.1653
 Traceless Quadrupole moment (field-independent basis, Debye-Ang):
   XX=            -38.2290   YY=             22.7510   ZZ=             15.4780
   XY=             25.3923   XZ=             -8.3390   YZ=              8.1653
 Octapole moment (field-independent basis, Debye-Ang**2):
  XXX=            -75.7121  YYY=             33.6966  ZZZ=              5.6060  XYY=             91.5509
  XXY=           -311.1691  XXZ=            109.0013  XZZ=            -12.8598  YZZ=              3.3392
  YYZ=              5.2919  XYZ=             18.8163
 Hexadecapole moment (field-independent basis, Debye-Ang**3):
 XXXX=         -27985.4220 YYYY=          -2196.0082 ZZZZ=          -1196.7451 XXXY=            843.5267
 XXXZ=           -873.8663 YYYX=            169.8007 YYYZ=             10.4059 ZZZX=              0.3534
 ZZZY=              4.3831 XXYY=          -4419.7521 XXZZ=          -4222.0099 YYZZ=           -575.9338
 XXYZ=            223.5868 YYXZ=            -64.2293 ZZXY=             -0.0599
 N-N= 2.708324478956D+03 E-N=-8.448482988623D+03  KE= 1.294324075948D+03
 1\1\GINC-MOSURA\SP\RHF\6-31G(d)\C20H36N4O4\MARIE\05-Dec-2019\0\\#SP HF
 /6-31G* Geom=(ModRedundant)\\paramfit run\\0,1\C,0,0.,0.,0.\N,0,1.4481
 87,0.,0.\C,0,2.1232,0.47592,1.072365\O,0,1.590179,0.696732,2.124447\C,
 0,3.650505,0.594143,0.921539\C,0,4.337302,-0.068319,2.120411\C,0,4.106
 104,-0.044553,-0.418647\C,0,3.832425,-1.539243,-0.664887\C,0,2.432728,
 -1.93543,-1.1753\C,0,2.032657,-1.254768,-2.463291\C,0,2.103428,-1.7452
 98,-3.690128\C,0,2.603123,-3.107834,-4.106727\C,0,1.489242,-4.115904,-
 4.442329\C,0,0.609943,-3.658769,-5.613984\C,0,-0.437128,-4.657444,-6.1
 71602\C,0,-1.217947,-3.939196,-7.284209\N,0,0.266866,-5.801781,-6.7341
 09\C,0,-0.403669,-6.908234,-7.169082\C,0,0.453783,-8.137693,-7.364053\
 O,0,-1.584087,-6.912189,-7.382949\C,0,-1.31345,-5.156149,-5.000245\O,0
 ,-0.9372,-6.06058,-4.304279\N,0,-2.448676,-4.47324,-4.737797\C,0,-3.34
 1095,-4.917605,-3.686927\N,0,4.047519,2.005701,0.815169\C,0,3.803562,2
 .935442,1.782504\C,0,4.589777,4.223183,1.649423\O,0,3.016381,2.755741,
 2.668052\H,0,-0.403259,1.006147,0.\H,0,-0.36496,-0.516002,0.875939\H,0
 ,-0.345658,-0.522086,-0.883346\H,0,1.904244,0.070913,-0.879357\H,0,4.0
 36995,-1.100029,2.22201\H,0,5.414404,-0.02374,1.989632\H,0,4.072354,0.
 441803,3.035018\H,0,5.184317,0.093909,-0.457477\H,0,3.694913,0.539848,
 -1.235763\H,0,4.554475,-1.865539,-1.407715\H,0,4.046626,-2.108586,0.23
 3635\H,0,1.688382,-1.725636,-0.418136\H,0,2.432263,-3.011995,-1.305081
 \H,0,1.642509,-0.255983,-2.352257\H,0,1.765228,-1.111382,-4.494821\H,0
 ,3.223639,-3.534877,-3.328228\H,0,3.247555,-2.988856,-4.976869\H,0,1.9
 61608,-5.069161,-4.662658\H,0,0.880273,-4.281493,-3.563372\H,0,1.24350
 3,-3.374818,-6.451544\H,0,0.071893,-2.766708,-5.315523\H,0,-0.538524,-
 3.72199,-8.100166\H,0,-1.619268,-2.993435,-6.935127\H,0,-2.020055,-4.5
 51758,-7.667782\H,0,1.160888,-5.986099,-6.339819\H,0,-0.049084,-8.8161
 75,-8.036249\H,0,0.578848,-8.628099,-6.403331\H,0,1.435633,-7.892932,-
 7.754495\H,0,-2.837871,-3.909354,-5.456038\H,0,-4.118533,-4.176164,-3.
 557398\H,0,-2.793181,-5.018993,-2.76165\H,0,-3.795943,-5.874321,-3.922
 644\H,0,4.812365,2.191853,0.205329\H,0,4.071552,5.005554,2.184503\H,0,
 4.725575,4.516213,0.614415\H,0,5.569931,4.089802,2.095863\\Version=EM6
 4L-G09RevA.02\State=1-A\HF=-1295.547329\RMSD=3.611e-09\Dipole=1.774711
 2,0.6444011,-2.3010204\Quadrupole=24.3880065,-1.3209621,-23.0670444,-3
 .1473277,-1.5705879,-21.6378231\PG=C01 [X(C20H36N4O4)]\\@


 EVERYBODY NEEDS BEAUTY AS WELL AS BREAD, PLACES TO PLAY IN AND PRAY IN,
 WHERE NATURE MAY HEAL AND CHEER AND GIVE STRENGTH TO BODY AND SOUL ALIKE.

                                    -- JOHN MUIR
 Job cpu time:  0 days  0 hours  5 minutes 52.9 seconds.
 File lengths (MBytes):  RWF=    132 Int=      0 D2E=      0 Chk=     10 Scr=      1
 Normal termination of Gaussian 09 at Thu Dec  5 16:27:25 2019.
