 Entering Gaussian System, Link 0=g09
 Input=PSI_60.gau
 Output=PSI_60.log
 Initial command:
 /home/marie/Utilities//g09/l1.exe /tmp/g09/Gau-2138.inp -scrdir=/tmp/g09/
 Entering Link 1 = /home/marie/Utilities//g09/l1.exe PID=      2169.
  
 Copyright (c) 1988,1990,1992,1993,1995,1998,2003,2009, Gaussian, Inc.
                  All Rights Reserved.
  
 This is part of the Gaussian(R) 09 program.  It is based on
 the Gaussian(R) 03 system (copyright 2003, Gaussian, Inc.),
 the Gaussian(R) 98 system (copyright 1998, Gaussian, Inc.),
 the Gaussian(R) 94 system (copyright 1995, Gaussian, Inc.),
 the Gaussian 92(TM) system (copyright 1992, Gaussian, Inc.),
 the Gaussian 90(TM) system (copyright 1990, Gaussian, Inc.),
 the Gaussian 88(TM) system (copyright 1988, Gaussian, Inc.),
 the Gaussian 86(TM) system (copyright 1986, Carnegie Mellon
 University), and the Gaussian 82(TM) system (copyright 1983,
 Carnegie Mellon University). Gaussian is a federally registered
 trademark of Gaussian, Inc.
  
 This software contains proprietary and confidential information,
 including trade secrets, belonging to Gaussian, Inc.
  
 This software is provided under written license and may be
 used, copied, transmitted, or stored only in accord with that
 written license.
  
 The following legend is applicable only to US Government
 contracts under FAR:
  
                    RESTRICTED RIGHTS LEGEND
  
 Use, reproduction and disclosure by the US Government is
 subject to restrictions as set forth in subparagraphs (a)
 and (c) of the Commercial Computer Software - Restricted
 Rights clause in FAR 52.227-19.
  
 Gaussian, Inc.
 340 Quinnipiac St., Bldg. 40, Wallingford CT 06492
  
  
 ---------------------------------------------------------------
 Warning -- This program may not be used in any manner that
 competes with the business of Gaussian, Inc. or will provide
 assistance to any competitor of Gaussian, Inc.  The licensee
 of this program is prohibited from giving any competitor of
 Gaussian, Inc. access to this program.  By using this program,
 the user acknowledges that Gaussian, Inc. is engaged in the
 business of creating and licensing software in the field of
 computational chemistry and represents and warrants to the
 licensee that it is not a competitor of Gaussian, Inc. and that
 it will not use this program in any manner prohibited above.
 ---------------------------------------------------------------
  

 Cite this work as:
 Gaussian 09, Revision A.02,
 M. J. Frisch, G. W. Trucks, H. B. Schlegel, G. E. Scuseria, 
 M. A. Robb, J. R. Cheeseman, G. Scalmani, V. Barone, B. Mennucci, 
 G. A. Petersson, H. Nakatsuji, M. Caricato, X. Li, H. P. Hratchian, 
 A. F. Izmaylov, J. Bloino, G. Zheng, J. L. Sonnenberg, M. Hada, 
 M. Ehara, K. Toyota, R. Fukuda, J. Hasegawa, M. Ishida, T. Nakajima, 
 Y. Honda, O. Kitao, H. Nakai, T. Vreven, J. A. Montgomery, Jr., 
 J. E. Peralta, F. Ogliaro, M. Bearpark, J. J. Heyd, E. Brothers, 
 K. N. Kudin, V. N. Staroverov, R. Kobayashi, J. Normand, 
 K. Raghavachari, A. Rendell, J. C. Burant, S. S. Iyengar, J. Tomasi, 
 M. Cossi, N. Rega, J. M. Millam, M. Klene, J. E. Knox, J. B. Cross, 
 V. Bakken, C. Adamo, J. Jaramillo, R. Gomperts, R. E. Stratmann, 
 O. Yazyev, A. J. Austin, R. Cammi, C. Pomelli, J. W. Ochterski, 
 R. L. Martin, K. Morokuma, V. G. Zakrzewski, G. A. Voth, 
 P. Salvador, J. J. Dannenberg, S. Dapprich, A. D. Daniels, 
 O. Farkas, J. B. Foresman, J. V. Ortiz, J. Cioslowski, 
 and D. J. Fox, Gaussian, Inc., Wallingford CT, 2009.
 
 ******************************************
 Gaussian 09:  EM64L-G09RevA.02 11-Jun-2009
                 5-Dec-2019 
 ******************************************
 %chk=PSI_60
 %NoSave
 ---------------------------------
 #SP HF/6-31G* Geom=(ModRedundant)
 ---------------------------------
 1/18=120,38=1/1;
 2/12=2,17=6,18=5,40=1/2;
 3/5=1,6=6,7=1,11=9,16=1,25=1,30=1/1,2,3;
 4//1;
 5/5=2,38=5/2;
 6/7=2,8=2,9=2,10=2,28=1/1;
 99/5=1,9=1/99;
 ------------
 paramfit run
 ------------
 Symbolic Z-matrix:
 Charge =  0 Multiplicity = 1
 C-CT--0.3208          0.        0.        0. 
 N-N--0.5622           1.44819   0.        0. 
 C-C-0.8053            2.1232    0.47592   1.07237 
 O-O--0.6151           1.59018   0.69673   2.12445 
 C-CX-0.0839           3.65051   0.59414   0.92154 
 C-CU--0.3230          3.97991   1.54301  -0.23561 
 C-CU--0.0657          4.28284   1.08143   2.25357 
 C-CU--0.0109          3.86773   2.45111   2.8204 
 C-CU-0.0816           2.56321   2.52079   3.63894 
 C-CM--0.2354          2.53254   1.58844   4.82724 
 C-CM--0.2653          2.78838   1.88463   6.09119 
 C-CU-0.1214           3.17575   3.22904   6.65888 
 C-CU--0.0354          2.03004   3.96974   7.37182 
 C-CU--0.0984          1.48088   3.19257   8.5757 
 C-CU-0.1300           0.447     3.90044   9.4893 
 C-CU--0.3561          0.01616   2.89505   10.56958 
 N-N--0.7186           1.09177   5.04394   10.12034 
 C-C-0.8537            0.38307   5.93935   10.86803 
 C-CT--0.3868          1.08932   7.24934   11.1325 
 O-O--0.6323          -0.71745   5.71091   11.28736 
 C-C-0.7903           -0.71097   4.4226    8.60885 
 O-O--0.6136          -0.61129   5.47553   8.03847 
 N-N--0.5650          -1.77374   3.60833   8.43145 
 C-CT--0.3231         -2.91516   4.05594   7.66007 
 N-N--0.7191           4.24674  -0.72938   0.68866 
 C-C-0.8539            3.93553  -1.52294  -0.37581 
 C-CT--0.3903          4.89788  -2.66468  -0.62962 
 O-O--0.6290           2.96575  -1.34118  -1.05598 
 H-H1-0.1459          -0.40326   1.00615   0. 
 H-H1-0.1459          -0.36496  -0.516     0.87594 
 H-H1-0.1459          -0.34566  -0.52209  -0.88335 
 H-H-0.3572            1.90424   0.07091  -0.87936 
 H-HC-0.0997           3.52939   2.51242  -0.08661 
 H-HC-0.0997           5.05684   1.66029  -0.31113 
 H-HC-0.0997           3.60291   1.14595  -1.16681 
 H-HC-0.0347           5.35448   1.12201   2.07147 
 H-HC-0.0347           4.13132   0.31497   3.00714 
 H-HC-0.0243           4.67701   2.77323   3.46918 
 H-HC-0.0243           3.81354   3.18257   2.02077 
 H-HC-0.0171           1.71372   2.31054   3.00213 
 H-HC-0.0171           2.44501   3.5479    3.96593 
 H-HA-0.1313           2.26556   0.56834   4.60308 
 H-HA-0.1359           2.7117    1.08422   6.81039 
 H-HC-0.0092           3.55924   3.87151   5.87554 
 H-HC-0.0092           3.99584   3.08477   7.36118 
 H-HC-0.0318           2.40537   4.94217   7.67823 
 H-HC-0.0318           1.23625   4.16672   6.66336 
 H-HC-0.0435           2.30586   2.89107   9.21761 
 H-HC-0.0435           1.01756   2.28093   8.21709 
 H-HC-0.1066           0.87217   2.66961   11.19487 
 H-HC-0.1066          -0.31788   1.96213   10.12746 
 H-HC-0.1066          -0.76438   3.2958    11.19879 
 H-H-0.3529            1.8522    5.43578   9.61347 
 H-HC-0.1047           0.64952   7.71917   11.99904 
 H-HC-0.1047           0.9465    7.89878   10.27404 
 H-HC-0.1047           2.15437   7.11494   11.28737 
 H-H-0.3615           -1.92709   2.8811    9.08942 
 H-H1-0.1469          -3.59587   3.22401   7.53581 
 H-H1-0.1469          -2.5886    4.39241   6.68705 
 H-H1-0.1469          -3.43581   4.87329   8.14855 
 H-H-0.3570            5.13886  -0.87778   1.10537 
 H-HC-0.1060           4.39023  -3.42901  -1.19978 
 H-HC-0.1060           5.28236  -3.08985   0.29068 
 H-HC-0.1060           5.73787  -2.2997   -1.21187 
 
 The following ModRedundant input section has been read:
 D    *    3    5    * F                                                       
 Stoichiometry    C20H36N4O4
 Framework group  C1[X(C20H36N4O4)]
 Deg. of freedom   186
 Full point group                 C1      NOp   1
 Largest Abelian subgroup         C1      NOp   1
 Largest concise Abelian subgroup C1      NOp   1
                         Standard orientation:                         
 ---------------------------------------------------------------------
 Center     Atomic      Atomic             Coordinates (Angstroms)
 Number     Number       Type             X           Y           Z
 ---------------------------------------------------------------------
      1          6    20001001       -4.797396    3.213960   -0.390131
      2          7    20001014       -5.213197    1.826752   -0.387376
      3          6    20001002       -4.287434    0.844785   -0.283383
      4          8    20001024       -3.150007    1.060930    0.031713
      5          6    90000001       -4.797642   -0.597072   -0.456940
      6          6    90000002       -5.422845   -0.756319   -1.846762
      7          6    90000002       -3.636647   -1.604759   -0.237265
      8          6    90000002       -2.407714   -1.541600   -1.162128
      9          6    90000002       -1.314593   -0.506728   -0.829317
     10          6    20001004       -0.741393   -0.643756    0.561704
     11          6    20001004        0.382091   -1.246900    0.914916
     12          6    90000002        1.369633   -1.949084    0.014109
     13          6    90000002        2.639468   -1.134246   -0.291051
     14          6    90000002        3.446492   -0.800334    0.970744
     15          6    90000002        4.837242   -0.138223    0.791665
     16          6    90000002        5.400934    0.145382    2.193547
     17          7    20001014        5.710928   -1.074589    0.097818
     18          6    20001002        6.956092   -0.708801   -0.325054
     19          6    20001001        7.581900   -1.635698   -1.341927
     20          8    20001024        7.517820    0.272512    0.075733
     21          6    20001002        4.673409    1.117994   -0.093660
     22          8    20001024        4.654338    1.017269   -1.290916
     23          7    20001014        4.452605    2.294906    0.530922
     24          6    20001001        4.340939    3.518443   -0.236339
     25          7    20001014       -5.777206   -0.923823    0.589539
     26          6    20001002       -6.947945   -0.247661    0.768001
     27          6    20001001       -7.965972   -0.945429    1.645989
     28          8    20001024       -7.155578    0.826009    0.277840
     29          1    20001035       -4.215517    3.458783   -1.271282
     30          1    20001035       -4.197233    3.416808    0.484729
     31          1    20001035       -5.680630    3.839609   -0.361596
     32          1    20001029       -6.048568    1.600074   -0.874263
     33          1    20001034       -4.719488   -0.498356   -2.623727
     34          1    20001034       -5.741044   -1.785485   -1.983901
     35          1    20001034       -6.279284   -0.106239   -1.950853
     36          1    20001034       -4.078216   -2.591391   -0.358897
     37          1    20001034       -3.316385   -1.540522    0.797910
     38          1    20001034       -1.946896   -2.524517   -1.128369
     39          1    20001034       -2.723735   -1.392347   -2.189371
     40          1    20001034       -1.702006    0.495978   -0.955244
     41          1    20001034       -0.530694   -0.619773   -1.569965
     42          1    20001033       -1.325236   -0.188489    1.345268
     43          1    20001033        0.636317   -1.240964    1.963293
     44          1    20001034        0.900374   -2.210645   -0.926555
     45          1    20001034        1.656170   -2.890183    0.481893
     46          1    20001034        3.239089   -1.707192   -0.992879
     47          1    20001034        2.364637   -0.224204   -0.807891
     48          1    20001034        3.608143   -1.708887    1.546881
     49          1    20001034        2.856532   -0.138574    1.593941
     50          1    20001034        5.574992   -0.799438    2.695145
     51          1    20001034        4.693984    0.707193    2.795187
     52          1    20001034        6.338237    0.679181    2.146010
     53          1    20001029        5.249140   -1.731196   -0.488980
     54          1    20001034        8.652358   -1.497410   -1.334372
     55          1    20001034        7.203998   -1.375286   -2.326051
     56          1    20001034        7.343692   -2.675779   -1.147325
     57          1    20001029        4.711409    2.379317    1.485491
     58          1    20001035        4.046804    4.318564    0.430153
     59          1    20001035        3.587230    3.401928   -1.001175
     60          1    20001035        5.278621    3.779973   -0.716037
     61          1    20001029       -5.752718   -1.861834    0.922828
     62          1    20001034       -8.652323   -0.208963    2.037797
     63          1    20001034       -7.501715   -1.484345    2.464271
     64          1    20001034       -8.526244   -1.655600    1.046362
 ---------------------------------------------------------------------
 Rotational constants (GHZ):      0.4151652      0.0484434      0.0461640
 Standard basis: 6-31G(d) (6D, 7F)
 There are   492 symmetry adapted basis functions of A   symmetry.
 Integral buffers will be    131072 words long.
 Raffenetti 1 integral format.
 Two-electron integral symmetry is turned on.
   492 basis functions,   928 primitive gaussians,   492 cartesian basis functions
   108 alpha electrons      108 beta electrons
       nuclear repulsion energy      2683.0180235086 Hartrees.
 NAtoms=   64 NActive=   64 NUniq=   64 SFac= 7.50D-01 NAtFMM=   80 NAOKFM=F Big=T
 One-electron integrals computed using PRISM.
 NBasis=   492 RedAO= T  NBF=   492
 NBsUse=   492 1.00D-06 NBFU=   492
 Harris functional with IExCor=  205 diagonalized for initial guess.
 ExpMin= 1.61D-01 ExpMax= 5.48D+03 ExpMxC= 8.25D+02 IAcc=1 IRadAn=         1 AccDes= 0.00D+00
 HarFok:  IExCor=  205 AccDes= 0.00D+00 IRadAn=         1 IDoV= 1
 ScaDFX=  1.000000  1.000000  1.000000  1.000000
 FoFCou: FMM=F IPFlag=           0 FMFlag=      100000 FMFlg1=           1
         NFxFlg=           0 DoJE=T BraDBF=F KetDBF=T FulRan=T
         Omega=  0.000000  0.000000  1.000000  0.000000  0.000000 ICntrl=     500 IOpCl=  0
         NMat0=    1 NMatS0=    1 NMatT0=    0 NMatD0=    1 NMtDS0=    0 NMtDT0=    0
         I1Cent=           4 NGrid=           0.
 Petite list used in FoFCou.
 Initial guess orbital symmetries:
       Occupied  (A) (A) (A) (A) (A) (A) (A) (A) (A) (A) (A) (A)
                 (A) (A) (A) (A) (A) (A) (A) (A) (A) (A) (A) (A)
                 (A) (A) (A) (A) (A) (A) (A) (A) (A) (A) (A) (A)
                 (A) (A) (A) (A) (A) (A) (A) (A) (A) (A) (A) (A)
                 (A) (A) (A) (A) (A) (A) (A) (A) (A) (A) (A) (A)
                 (A) (A) (A) (A) (A) (A) (A) (A) (A) (A) (A) (A)
                 (A) (A) (A) (A) (A) (A) (A) (A) (A) (A) (A) (A)
                 (A) (A) (A) (A) (A) (A) (A) (A) (A) (A) (A) (A)
                 (A) (A) (A) (A) (A) (A) (A) (A) (A) (A) (A) (A)
       Virtual   (A) (A) (A) (A) (A) (A) (A) (A) (A) (A) (A) (A)
                 (A) (A) (A) (A) (A) (A) (A) (A) (A) (A) (A) (A)
                 (A) (A) (A) (A) (A) (A) (A) (A) (A) (A) (A) (A)
                 (A) (A) (A) (A) (A) (A) (A) (A) (A) (A) (A) (A)
                 (A) (A) (A) (A) (A) (A) (A) (A) (A) (A) (A) (A)
                 (A) (A) (A) (A) (A) (A) (A) (A) (A) (A) (A) (A)
                 (A) (A) (A) (A) (A) (A) (A) (A) (A) (A) (A) (A)
                 (A) (A) (A) (A) (A) (A) (A) (A) (A) (A) (A) (A)
                 (A) (A) (A) (A) (A) (A) (A) (A) (A) (A) (A) (A)
                 (A) (A) (A) (A) (A) (A) (A) (A) (A) (A) (A) (A)
                 (A) (A) (A) (A) (A) (A) (A) (A) (A) (A) (A) (A)
                 (A) (A) (A) (A) (A) (A) (A) (A) (A) (A) (A) (A)
                 (A) (A) (A) (A) (A) (A) (A) (A) (A) (A) (A) (A)
                 (A) (A) (A) (A) (A) (A) (A) (A) (A) (A) (A) (A)
                 (A) (A) (A) (A) (A) (A) (A) (A) (A) (A) (A) (A)
                 (A) (A) (A) (A) (A) (A) (A) (A) (A) (A) (A) (A)
                 (A) (A) (A) (A) (A) (A) (A) (A) (A) (A) (A) (A)
                 (A) (A) (A) (A) (A) (A) (A) (A) (A) (A) (A) (A)
                 (A) (A) (A) (A) (A) (A) (A) (A) (A) (A) (A) (A)
                 (A) (A) (A) (A) (A) (A) (A) (A) (A) (A) (A) (A)
                 (A) (A) (A) (A) (A) (A) (A) (A) (A) (A) (A) (A)
                 (A) (A) (A) (A) (A) (A) (A) (A) (A) (A) (A) (A)
                 (A) (A) (A) (A) (A) (A) (A) (A) (A) (A) (A) (A)
                 (A) (A) (A) (A) (A) (A) (A) (A) (A) (A) (A) (A)
                 (A) (A) (A) (A) (A) (A) (A) (A) (A) (A) (A) (A)
                 (A) (A) (A) (A) (A) (A) (A) (A) (A) (A) (A) (A)
                 (A) (A) (A) (A) (A) (A) (A) (A) (A) (A) (A) (A)
                 (A) (A) (A) (A) (A) (A) (A) (A) (A) (A) (A) (A)
                 (A) (A) (A) (A) (A) (A) (A) (A) (A) (A) (A) (A)
                 (A) (A) (A) (A) (A) (A) (A) (A) (A) (A) (A) (A)
                 (A) (A) (A) (A) (A) (A) (A) (A) (A) (A) (A) (A)
                 (A) (A) (A) (A) (A) (A) (A) (A) (A) (A) (A) (A)
 The electronic state of the initial guess is 1-A.
 Requested convergence on RMS density matrix=1.00D-08 within 128 cycles.
 Requested convergence on MAX density matrix=1.00D-06.
 Requested convergence on             energy=1.00D-06.
 No special actions if energy rises.
 Integral accuracy reduced to 1.0D-05 until final iterations.
 Initial convergence to 1.0D-05 achieved.  Increase integral accuracy.
 SCF Done:  E(RHF) =  -1295.57664202     A.U. after   14 cycles
             Convg  =    0.5067D-08             -V/T =  2.0010

 **********************************************************************

            Population analysis using the SCF density.

 **********************************************************************

 Orbital symmetries:
       Occupied  (A) (A) (A) (A) (A) (A) (A) (A) (A) (A) (A) (A)
                 (A) (A) (A) (A) (A) (A) (A) (A) (A) (A) (A) (A)
                 (A) (A) (A) (A) (A) (A) (A) (A) (A) (A) (A) (A)
                 (A) (A) (A) (A) (A) (A) (A) (A) (A) (A) (A) (A)
                 (A) (A) (A) (A) (A) (A) (A) (A) (A) (A) (A) (A)
                 (A) (A) (A) (A) (A) (A) (A) (A) (A) (A) (A) (A)
                 (A) (A) (A) (A) (A) (A) (A) (A) (A) (A) (A) (A)
                 (A) (A) (A) (A) (A) (A) (A) (A) (A) (A) (A) (A)
                 (A) (A) (A) (A) (A) (A) (A) (A) (A) (A) (A) (A)
       Virtual   (A) (A) (A) (A) (A) (A) (A) (A) (A) (A) (A) (A)
                 (A) (A) (A) (A) (A) (A) (A) (A) (A) (A) (A) (A)
                 (A) (A) (A) (A) (A) (A) (A) (A) (A) (A) (A) (A)
                 (A) (A) (A) (A) (A) (A) (A) (A) (A) (A) (A) (A)
                 (A) (A) (A) (A) (A) (A) (A) (A) (A) (A) (A) (A)
                 (A) (A) (A) (A) (A) (A) (A) (A) (A) (A) (A) (A)
                 (A) (A) (A) (A) (A) (A) (A) (A) (A) (A) (A) (A)
                 (A) (A) (A) (A) (A) (A) (A) (A) (A) (A) (A) (A)
                 (A) (A) (A) (A) (A) (A) (A) (A) (A) (A) (A) (A)
                 (A) (A) (A) (A) (A) (A) (A) (A) (A) (A) (A) (A)
                 (A) (A) (A) (A) (A) (A) (A) (A) (A) (A) (A) (A)
                 (A) (A) (A) (A) (A) (A) (A) (A) (A) (A) (A) (A)
                 (A) (A) (A) (A) (A) (A) (A) (A) (A) (A) (A) (A)
                 (A) (A) (A) (A) (A) (A) (A) (A) (A) (A) (A) (A)
                 (A) (A) (A) (A) (A) (A) (A) (A) (A) (A) (A) (A)
                 (A) (A) (A) (A) (A) (A) (A) (A) (A) (A) (A) (A)
                 (A) (A) (A) (A) (A) (A) (A) (A) (A) (A) (A) (A)
                 (A) (A) (A) (A) (A) (A) (A) (A) (A) (A) (A) (A)
                 (A) (A) (A) (A) (A) (A) (A) (A) (A) (A) (A) (A)
                 (A) (A) (A) (A) (A) (A) (A) (A) (A) (A) (A) (A)
                 (A) (A) (A) (A) (A) (A) (A) (A) (A) (A) (A) (A)
                 (A) (A) (A) (A) (A) (A) (A) (A) (A) (A) (A) (A)
                 (A) (A) (A) (A) (A) (A) (A) (A) (A) (A) (A) (A)
                 (A) (A) (A) (A) (A) (A) (A) (A) (A) (A) (A) (A)
                 (A) (A) (A) (A) (A) (A) (A) (A) (A) (A) (A) (A)
                 (A) (A) (A) (A) (A) (A) (A) (A) (A) (A) (A) (A)
                 (A) (A) (A) (A) (A) (A) (A) (A) (A) (A) (A) (A)
                 (A) (A) (A) (A) (A) (A) (A) (A) (A) (A) (A) (A)
                 (A) (A) (A) (A) (A) (A) (A) (A) (A) (A) (A) (A)
                 (A) (A) (A) (A) (A) (A) (A) (A) (A) (A) (A) (A)
                 (A) (A) (A) (A) (A) (A) (A) (A) (A) (A) (A) (A)
                 (A) (A) (A) (A) (A) (A) (A) (A) (A) (A) (A) (A)
 The electronic state is 1-A.
 Alpha  occ. eigenvalues --  -20.53299 -20.51788 -20.51625 -20.51072 -15.59707
 Alpha  occ. eigenvalues --  -15.57394 -15.57023 -15.55573 -11.36224 -11.33833
 Alpha  occ. eigenvalues --  -11.33626 -11.33154 -11.29307 -11.27970 -11.24558
 Alpha  occ. eigenvalues --  -11.24272 -11.24154 -11.23056 -11.22966 -11.22613
 Alpha  occ. eigenvalues --  -11.22169 -11.21717 -11.21443 -11.21354 -11.21268
 Alpha  occ. eigenvalues --  -11.20478 -11.20213 -11.19072  -1.41307  -1.39050
 Alpha  occ. eigenvalues --   -1.38898  -1.37615  -1.25184  -1.23037  -1.22110
 Alpha  occ. eigenvalues --   -1.21614  -1.09618  -1.08739  -1.06457  -1.03575
 Alpha  occ. eigenvalues --   -1.00692  -0.99511  -0.98372  -0.94723  -0.94439
 Alpha  occ. eigenvalues --   -0.94140  -0.91618  -0.86901  -0.85092  -0.82851
 Alpha  occ. eigenvalues --   -0.80978  -0.78994  -0.78096  -0.76946  -0.76371
 Alpha  occ. eigenvalues --   -0.71652  -0.71110  -0.70384  -0.68869  -0.67421
 Alpha  occ. eigenvalues --   -0.66046  -0.65350  -0.64476  -0.64129  -0.63395
 Alpha  occ. eigenvalues --   -0.62601  -0.61693  -0.61196  -0.60983  -0.60701
 Alpha  occ. eigenvalues --   -0.60155  -0.59647  -0.58851  -0.58490  -0.58104
 Alpha  occ. eigenvalues --   -0.57729  -0.57207  -0.56755  -0.55938  -0.55670
 Alpha  occ. eigenvalues --   -0.55041  -0.54757  -0.54355  -0.54225  -0.54080
 Alpha  occ. eigenvalues --   -0.52799  -0.52551  -0.52374  -0.52032  -0.51489
 Alpha  occ. eigenvalues --   -0.50621  -0.49357  -0.49151  -0.48069  -0.47519
 Alpha  occ. eigenvalues --   -0.47384  -0.45592  -0.45521  -0.43130  -0.42906
 Alpha  occ. eigenvalues --   -0.42344  -0.40988  -0.40625  -0.38720  -0.38339
 Alpha  occ. eigenvalues --   -0.37770  -0.35877  -0.32836
 Alpha virt. eigenvalues --    0.18498   0.18801   0.19451   0.20150   0.20822
 Alpha virt. eigenvalues --    0.22098   0.22556   0.23820   0.24407   0.25486
 Alpha virt. eigenvalues --    0.25675   0.26251   0.26918   0.27546   0.27981
 Alpha virt. eigenvalues --    0.28061   0.28527   0.29270   0.29426   0.29884
 Alpha virt. eigenvalues --    0.30312   0.30765   0.31510   0.31728   0.32310
 Alpha virt. eigenvalues --    0.32793   0.32949   0.33599   0.34014   0.34268
 Alpha virt. eigenvalues --    0.34369   0.34799   0.35235   0.35565   0.35922
 Alpha virt. eigenvalues --    0.36070   0.36516   0.37280   0.37762   0.38212
 Alpha virt. eigenvalues --    0.39216   0.39441   0.39862   0.40163   0.40990
 Alpha virt. eigenvalues --    0.41611   0.42238   0.42619   0.43359   0.44573
 Alpha virt. eigenvalues --    0.44871   0.45621   0.46053   0.46506   0.47732
 Alpha virt. eigenvalues --    0.48159   0.49057   0.49696   0.52513   0.52824
 Alpha virt. eigenvalues --    0.55416   0.56305   0.58315   0.58922   0.60313
 Alpha virt. eigenvalues --    0.63546   0.64156   0.65646   0.70006   0.70503
 Alpha virt. eigenvalues --    0.70789   0.71904   0.72324   0.73026   0.73401
 Alpha virt. eigenvalues --    0.73606   0.74677   0.75832   0.76782   0.76988
 Alpha virt. eigenvalues --    0.77164   0.77240   0.78187   0.79158   0.79469
 Alpha virt. eigenvalues --    0.79682   0.79845   0.80893   0.80997   0.81827
 Alpha virt. eigenvalues --    0.82825   0.84438   0.85210   0.85869   0.86217
 Alpha virt. eigenvalues --    0.88143   0.88408   0.89034   0.90936   0.91400
 Alpha virt. eigenvalues --    0.92391   0.92829   0.93128   0.93784   0.94581
 Alpha virt. eigenvalues --    0.95316   0.96003   0.96668   0.96894   0.97651
 Alpha virt. eigenvalues --    0.99275   0.99563   1.00287   1.00607   1.00963
 Alpha virt. eigenvalues --    1.01138   1.02705   1.02997   1.03400   1.04470
 Alpha virt. eigenvalues --    1.04888   1.05459   1.07017   1.07553   1.08056
 Alpha virt. eigenvalues --    1.08482   1.09094   1.10035   1.10987   1.11909
 Alpha virt. eigenvalues --    1.13076   1.13736   1.14061   1.14396   1.14902
 Alpha virt. eigenvalues --    1.15232   1.15343   1.15779   1.15948   1.16023
 Alpha virt. eigenvalues --    1.16764   1.17157   1.17284   1.17691   1.17911
 Alpha virt. eigenvalues --    1.18270   1.18744   1.18921   1.19495   1.19913
 Alpha virt. eigenvalues --    1.20005   1.20205   1.20955   1.21675   1.21992
 Alpha virt. eigenvalues --    1.22356   1.22443   1.22874   1.23281   1.23584
 Alpha virt. eigenvalues --    1.23921   1.24006   1.24369   1.26270   1.26689
 Alpha virt. eigenvalues --    1.27105   1.27454   1.28531   1.28797   1.29930
 Alpha virt. eigenvalues --    1.30219   1.30372   1.31218   1.31939   1.32480
 Alpha virt. eigenvalues --    1.34649   1.36054   1.36369   1.36984   1.39168
 Alpha virt. eigenvalues --    1.39746   1.40332   1.41780   1.42574   1.43800
 Alpha virt. eigenvalues --    1.44287   1.46799   1.48516   1.49721   1.50729
 Alpha virt. eigenvalues --    1.52327   1.54024   1.54886   1.55457   1.56489
 Alpha virt. eigenvalues --    1.58262   1.60151   1.60768   1.62070   1.63040
 Alpha virt. eigenvalues --    1.64503   1.66007   1.67897   1.69312   1.70124
 Alpha virt. eigenvalues --    1.70943   1.72452   1.72606   1.73957   1.74481
 Alpha virt. eigenvalues --    1.75083   1.78094   1.79172   1.81025   1.81249
 Alpha virt. eigenvalues --    1.82926   1.83831   1.86382   1.87494   1.88528
 Alpha virt. eigenvalues --    1.90136   1.90946   1.92099   1.93682   1.96172
 Alpha virt. eigenvalues --    1.96330   1.98054   1.99163   2.00449   2.03231
 Alpha virt. eigenvalues --    2.05056   2.05264   2.06861   2.07610   2.08863
 Alpha virt. eigenvalues --    2.10472   2.11549   2.12450   2.12953   2.13117
 Alpha virt. eigenvalues --    2.13755   2.14759   2.15741   2.15950   2.16804
 Alpha virt. eigenvalues --    2.17517   2.18358   2.19219   2.19452   2.20142
 Alpha virt. eigenvalues --    2.20651   2.21461   2.22345   2.23012   2.24394
 Alpha virt. eigenvalues --    2.25218   2.25645   2.26370   2.27043   2.27795
 Alpha virt. eigenvalues --    2.29084   2.29532   2.29878   2.31762   2.33125
 Alpha virt. eigenvalues --    2.33443   2.33820   2.34705   2.35485   2.37261
 Alpha virt. eigenvalues --    2.37750   2.37931   2.39713   2.39855   2.40789
 Alpha virt. eigenvalues --    2.41170   2.42174   2.42813   2.43856   2.45334
 Alpha virt. eigenvalues --    2.46676   2.47508   2.47976   2.50008   2.50687
 Alpha virt. eigenvalues --    2.52925   2.53189   2.53652   2.55107   2.56543
 Alpha virt. eigenvalues --    2.57065   2.57595   2.58432   2.60053   2.61411
 Alpha virt. eigenvalues --    2.62901   2.63727   2.64894   2.65363   2.65933
 Alpha virt. eigenvalues --    2.66213   2.68275   2.70068   2.70778   2.71453
 Alpha virt. eigenvalues --    2.71840   2.73949   2.75391   2.76347   2.77179
 Alpha virt. eigenvalues --    2.77475   2.78430   2.79059   2.80087   2.81675
 Alpha virt. eigenvalues --    2.82953   2.83588   2.86201   2.86913   2.88865
 Alpha virt. eigenvalues --    2.90391   2.92177   2.93088   2.93793   2.96349
 Alpha virt. eigenvalues --    2.96586   2.97782   2.98247   2.99406   3.02519
 Alpha virt. eigenvalues --    3.02703   3.04104   3.06063   3.06364   3.07871
 Alpha virt. eigenvalues --    3.09959   3.11656   3.13658   3.14325   3.16449
 Alpha virt. eigenvalues --    3.18551   3.19283   3.24036   3.31122   3.33146
 Alpha virt. eigenvalues --    3.34900   3.36384   3.40060   3.41026   3.43199
 Alpha virt. eigenvalues --    3.43491   3.47678   3.55180   3.56224   3.57574
 Alpha virt. eigenvalues --    3.58077   4.38946   4.39631   4.45952   4.49689
 Alpha virt. eigenvalues --    4.51321   4.52348   4.56598   4.59867   4.63681
 Alpha virt. eigenvalues --    4.64019   4.67286   4.68189   4.69977   4.70904
 Alpha virt. eigenvalues --    4.72249   4.76969   4.78739   4.84102   4.85515
 Alpha virt. eigenvalues --    4.90132   4.93148   4.94458   4.97166   4.99895
 Alpha virt. eigenvalues --    5.02676   5.08258   5.21358   5.24181
          Condensed to atoms (all electrons):
 Mulliken atomic charges:
              1
     1  C   -0.276635
     2  N   -0.747920
     3  C    0.796230
     4  O   -0.634553
     5  C    0.083933
     6  C   -0.490318
     7  C   -0.315847
     8  C   -0.319741
     9  C   -0.345968
    10  C   -0.168453
    11  C   -0.186831
    12  C   -0.348328
    13  C   -0.308906
    14  C   -0.328509
    15  C    0.090439
    16  C   -0.509649
    17  N   -0.787598
    18  C    0.767441
    19  C   -0.595462
    20  O   -0.614796
    21  C    0.821310
    22  O   -0.640673
    23  N   -0.804922
    24  C   -0.274717
    25  N   -0.810905
    26  C    0.771157
    27  C   -0.589365
    28  O   -0.621393
    29  H    0.159791
    30  H    0.195115
    31  H    0.172015
    32  H    0.424354
    33  H    0.182639
    34  H    0.168955
    35  H    0.183562
    36  H    0.147434
    37  H    0.196184
    38  H    0.162557
    39  H    0.155074
    40  H    0.235729
    41  H    0.150715
    42  H    0.191605
    43  H    0.163303
    44  H    0.174427
    45  H    0.154217
    46  H    0.146018
    47  H    0.198644
    48  H    0.171800
    49  H    0.187691
    50  H    0.182846
    51  H    0.149370
    52  H    0.224759
    53  H    0.390018
    54  H    0.209924
    55  H    0.208753
    56  H    0.176106
    57  H    0.395164
    58  H    0.164571
    59  H    0.199291
    60  H    0.183027
    61  H    0.386434
    62  H    0.217981
    63  H    0.184558
    64  H    0.196352
 Sum of Mulliken atomic charges =   0.00000
 Mulliken charges with hydrogens summed into heavy atoms:
              1
     1  C    0.250286
     2  N   -0.323566
     3  C    0.796230
     4  O   -0.634553
     5  C    0.083933
     6  C    0.044838
     7  C    0.027771
     8  C   -0.002110
     9  C    0.040476
    10  C    0.023152
    11  C   -0.023528
    12  C   -0.019684
    13  C    0.035755
    14  C    0.030981
    15  C    0.090439
    16  C    0.047325
    17  N   -0.397581
    18  C    0.767441
    19  C   -0.000679
    20  O   -0.614796
    21  C    0.821310
    22  O   -0.640673
    23  N   -0.409757
    24  C    0.272171
    25  N   -0.424471
    26  C    0.771157
    27  C    0.009526
    28  O   -0.621393
 Sum of Mulliken charges with hydrogens summed into heavy atoms =   0.00000
 Electronic spatial extent (au):  <R**2>=          22573.0370
 Charge=              0.0000 electrons
 Dipole moment (field-independent basis, Debye):
    X=             -5.9316    Y=             -4.0207    Z=              1.2516  Tot=              7.2743
 Quadrupole moment (field-independent basis, Debye-Ang):
   XX=           -175.5289   YY=           -155.6537   ZZ=           -166.7279
   XY=              6.8397   XZ=              5.6309   YZ=              2.8322
 Traceless Quadrupole moment (field-independent basis, Debye-Ang):
   XX=             -9.5587   YY=             10.3164   ZZ=             -0.7577
   XY=              6.8397   XZ=              5.6309   YZ=              2.8322
 Octapole moment (field-independent basis, Debye-Ang**2):
  XXX=           -415.6423  YYY=             56.6793  ZZZ=              9.9548  XYY=             16.9675
  XXY=           -205.7519  XXZ=             23.6757  XZZ=            -18.5247  YZZ=              5.6047
  YYZ=              0.7283  XYZ=             60.3956
 Hexadecapole moment (field-independent basis, Debye-Ang**3):
 XXXX=         -27271.6990 YYYY=          -2399.0313 ZZZZ=          -1195.3667 XXXY=            135.4397
 XXXZ=           -503.4079 YYYX=             65.0746 YYYZ=              1.7772 ZZZX=            -21.8932
 ZZZY=              7.4941 XXYY=          -4277.7048 XXZZ=          -4280.1035 YYZZ=           -615.0656
 XXYZ=             42.3623 YYXZ=              1.3332 ZZXY=             -4.0811
 N-N= 2.683018023509D+03 E-N=-8.399354188651D+03  KE= 1.294302092679D+03
 1\1\GINC-MOSURA\SP\RHF\6-31G(d)\C20H36N4O4\MARIE\05-Dec-2019\0\\#SP HF
 /6-31G* Geom=(ModRedundant)\\paramfit run\\0,1\C,0,0.,0.,0.\N,0,1.4481
 87,0.,0.\C,0,2.1232,0.47592,1.072365\O,0,1.590179,0.696732,2.124447\C,
 0,3.650505,0.594143,0.921539\C,0,3.979911,1.543009,-0.235607\C,0,4.282
 836,1.081428,2.253572\C,0,3.867728,2.45111,2.820399\C,0,2.563209,2.520
 791,3.638941\C,0,2.532537,1.588439,4.82724\C,0,2.788383,1.884625,6.091
 191\C,0,3.175745,3.229035,6.658878\C,0,2.030044,3.969742,7.37182\C,0,1
 .48088,3.192571,8.575704\C,0,0.446998,3.900442,9.489298\C,0,0.016155,2
 .895045,10.569577\N,0,1.091765,5.043941,10.120342\C,0,0.383065,5.93935
 ,10.868033\C,0,1.089318,7.249338,11.1325\O,0,-0.717448,5.710914,11.287
 356\C,0,-0.710968,4.422598,8.608848\O,0,-0.611286,5.47553,8.038473\N,0
 ,-1.773739,3.608334,8.431446\C,0,-2.915155,4.055944,7.660073\N,0,4.246
 739,-0.729375,0.688656\C,0,3.935529,-1.522936,-0.375807\C,0,4.89788,-2
 .66468,-0.629623\O,0,2.96575,-1.341177,-1.055977\H,0,-0.403259,1.00614
 7,0.\H,0,-0.36496,-0.516002,0.875939\H,0,-0.345658,-0.522086,-0.883346
 \H,0,1.904244,0.070913,-0.879357\H,0,3.529385,2.51242,-0.086609\H,0,5.
 056841,1.660294,-0.311134\H,0,3.602905,1.14595,-1.166809\H,0,5.354476,
 1.122012,2.071467\H,0,4.13132,0.314974,3.007145\H,0,4.677012,2.773234,
 3.469178\H,0,3.813541,3.182573,2.020775\H,0,1.713718,2.310537,3.002134
 \H,0,2.445013,3.547895,3.965931\H,0,2.265562,0.568344,4.603083\H,0,2.7
 11698,1.084225,6.810385\H,0,3.559236,3.871511,5.875535\H,0,3.995837,3.
 08477,7.361181\H,0,2.405367,4.94217,7.678235\H,0,1.236247,4.16672,6.66
 3359\H,0,2.30586,2.891068,9.217606\H,0,1.017559,2.280935,8.217089\H,0,
 0.87217,2.669609,11.194875\H,0,-0.317877,1.962127,10.12746\H,0,-0.7643
 75,3.295797,11.19879\H,0,1.852196,5.435783,9.613472\H,0,0.649519,7.719
 173,11.99904\H,0,0.946502,7.898778,10.274038\H,0,2.154369,7.114938,11.
 287371\H,0,-1.927088,2.881104,9.089419\H,0,-3.595866,3.224012,7.535807
 \H,0,-2.588597,4.392406,6.687047\H,0,-3.435811,4.873293,8.148553\H,0,5
 .138857,-0.877784,1.105366\H,0,4.390234,-3.429006,-1.199776\H,0,5.2823
 64,-3.089848,0.290678\H,0,5.737872,-2.299704,-1.211866\\Version=EM64L-
 G09RevA.02\State=1-A\HF=-1295.576642\RMSD=5.067e-09\Dipole=2.1862206,-
 1.2895406,-1.3222191\Quadrupole=9.2367117,-5.3430323,-3.8936794,2.7476
 559,-1.7215555,-5.2553056\PG=C01 [X(C20H36N4O4)]\\@


 SLITHERY-DITHERY
 FRIEDRICH A. KEKULE
 DREAMT ON A BUS OF THINGS
 FREUD WOULD THINK KEEN.
 MOST OF THE TIME THEY WERE
 HERPETOLOGICAL
 BITING THEIR TAILS IN THE
 SHAPE OF BENZENE.
 Job cpu time:  0 days  0 hours  5 minutes 19.5 seconds.
 File lengths (MBytes):  RWF=    132 Int=      0 D2E=      0 Chk=     10 Scr=      1
 Normal termination of Gaussian 09 at Thu Dec  5 15:59:46 2019.
