 Entering Gaussian System, Link 0=g09
 Input=PSI_120.gau
 Output=PSI_120.log
 Initial command:
 /home/marie/Utilities//g09/l1.exe /tmp/g09/Gau-4076.inp -scrdir=/tmp/g09/
 Entering Link 1 = /home/marie/Utilities//g09/l1.exe PID=      4078.
  
 Copyright (c) 1988,1990,1992,1993,1995,1998,2003,2009, Gaussian, Inc.
                  All Rights Reserved.
  
 This is part of the Gaussian(R) 09 program.  It is based on
 the Gaussian(R) 03 system (copyright 2003, Gaussian, Inc.),
 the Gaussian(R) 98 system (copyright 1998, Gaussian, Inc.),
 the Gaussian(R) 94 system (copyright 1995, Gaussian, Inc.),
 the Gaussian 92(TM) system (copyright 1992, Gaussian, Inc.),
 the Gaussian 90(TM) system (copyright 1990, Gaussian, Inc.),
 the Gaussian 88(TM) system (copyright 1988, Gaussian, Inc.),
 the Gaussian 86(TM) system (copyright 1986, Carnegie Mellon
 University), and the Gaussian 82(TM) system (copyright 1983,
 Carnegie Mellon University). Gaussian is a federally registered
 trademark of Gaussian, Inc.
  
 This software contains proprietary and confidential information,
 including trade secrets, belonging to Gaussian, Inc.
  
 This software is provided under written license and may be
 used, copied, transmitted, or stored only in accord with that
 written license.
  
 The following legend is applicable only to US Government
 contracts under FAR:
  
                    RESTRICTED RIGHTS LEGEND
  
 Use, reproduction and disclosure by the US Government is
 subject to restrictions as set forth in subparagraphs (a)
 and (c) of the Commercial Computer Software - Restricted
 Rights clause in FAR 52.227-19.
  
 Gaussian, Inc.
 340 Quinnipiac St., Bldg. 40, Wallingford CT 06492
  
  
 ---------------------------------------------------------------
 Warning -- This program may not be used in any manner that
 competes with the business of Gaussian, Inc. or will provide
 assistance to any competitor of Gaussian, Inc.  The licensee
 of this program is prohibited from giving any competitor of
 Gaussian, Inc. access to this program.  By using this program,
 the user acknowledges that Gaussian, Inc. is engaged in the
 business of creating and licensing software in the field of
 computational chemistry and represents and warrants to the
 licensee that it is not a competitor of Gaussian, Inc. and that
 it will not use this program in any manner prohibited above.
 ---------------------------------------------------------------
  

 Cite this work as:
 Gaussian 09, Revision A.02,
 M. J. Frisch, G. W. Trucks, H. B. Schlegel, G. E. Scuseria, 
 M. A. Robb, J. R. Cheeseman, G. Scalmani, V. Barone, B. Mennucci, 
 G. A. Petersson, H. Nakatsuji, M. Caricato, X. Li, H. P. Hratchian, 
 A. F. Izmaylov, J. Bloino, G. Zheng, J. L. Sonnenberg, M. Hada, 
 M. Ehara, K. Toyota, R. Fukuda, J. Hasegawa, M. Ishida, T. Nakajima, 
 Y. Honda, O. Kitao, H. Nakai, T. Vreven, J. A. Montgomery, Jr., 
 J. E. Peralta, F. Ogliaro, M. Bearpark, J. J. Heyd, E. Brothers, 
 K. N. Kudin, V. N. Staroverov, R. Kobayashi, J. Normand, 
 K. Raghavachari, A. Rendell, J. C. Burant, S. S. Iyengar, J. Tomasi, 
 M. Cossi, N. Rega, J. M. Millam, M. Klene, J. E. Knox, J. B. Cross, 
 V. Bakken, C. Adamo, J. Jaramillo, R. Gomperts, R. E. Stratmann, 
 O. Yazyev, A. J. Austin, R. Cammi, C. Pomelli, J. W. Ochterski, 
 R. L. Martin, K. Morokuma, V. G. Zakrzewski, G. A. Voth, 
 P. Salvador, J. J. Dannenberg, S. Dapprich, A. D. Daniels, 
 O. Farkas, J. B. Foresman, J. V. Ortiz, J. Cioslowski, 
 and D. J. Fox, Gaussian, Inc., Wallingford CT, 2009.
 
 ******************************************
 Gaussian 09:  EM64L-G09RevA.02 11-Jun-2009
                 5-Dec-2019 
 ******************************************
 %chk=PSI_120
 %NoSave
 ---------------------------------
 #SP HF/6-31G* Geom=(ModRedundant)
 ---------------------------------
 1/18=120,38=1/1;
 2/12=2,17=6,18=5,40=1/2;
 3/5=1,6=6,7=1,11=9,16=1,25=1,30=1/1,2,3;
 4//1;
 5/5=2,38=5/2;
 6/7=2,8=2,9=2,10=2,28=1/1;
 99/5=1,9=1/99;
 ------------
 paramfit run
 ------------
 Symbolic Z-matrix:
 Charge =  0 Multiplicity = 1
 C-CT--0.3208          0.        0.        0. 
 N-N--0.5622           1.44819   0.        0. 
 C-C-0.8053            2.1232    0.47592   1.07237 
 O-O--0.6151           1.59018   0.69673   2.12445 
 C-CX-0.0839           3.65051   0.59414   0.92154 
 C-CU--0.3230          4.07332   2.05465   1.11127 
 C-CU--0.0657          4.3617   -0.33995   1.93804 
 C-CU--0.0109          4.12838  -0.12087   3.44376 
 C-CU-0.0816           2.85719  -0.73127   4.06675 
 C-CM--0.2354          2.73339  -2.22432   3.87249 
 C-CM--0.2653          3.0463   -3.17817   4.73447 
 C-CU-0.1214           3.60613  -3.01006   6.12662 
 C-CU--0.0354          2.57315  -3.19926   7.25211 
 C-CU--0.0984          1.95423  -4.60347   7.25816 
 C-CU-0.1300           1.03176  -4.98759   8.44397 
 C-CU--0.3561          0.49997  -6.40545   8.17876 
 N-N--0.7186           1.82343  -4.98724   9.66658 
 C-C-0.8537            1.24371  -5.14905   10.89166 
 C-CT--0.3868          2.1103   -4.75146   12.06458 
 O-O--0.6323           0.13115  -5.57439   11.03459 
 C-C-0.7903           -0.06879  -3.91096   8.57955 
 O-O--0.6136           0.14938  -2.89379   9.18096 
 N-N--0.5650          -1.22662  -4.1177    7.91573 
 C-CT--0.3231         -2.31797  -3.17347   8.04069 
 N-N--0.7191           4.07521   0.10159  -0.39697 
 C-C-0.8539            3.64978   0.63571  -1.57739 
 C-CT--0.3903          4.45973   0.23553  -2.7931 
 O-O--0.6290           2.69768   1.35949  -1.65359 
 H-H1-0.1459          -0.40326   1.00615   0. 
 H-H1-0.1459          -0.36496  -0.516     0.87594 
 H-H1-0.1459          -0.34566  -0.52209  -0.88335 
 H-H-0.3572            1.90424   0.07091  -0.87936 
 H-HC-0.0997           3.74815   2.43468   2.0677 
 H-HC-0.0997           5.15497   2.12847   1.0495 
 H-HC-0.0997           3.63374   2.67625   0.34491 
 H-HC-0.0347           5.42677  -0.21248   1.75746 
 H-HC-0.0347           4.13061  -1.36873   1.68016 
 H-HC-0.0243           4.98261  -0.55662   3.95368 
 H-HC-0.0243           4.15023   0.93967   3.67213 
 H-HC-0.0171           1.97703  -0.24771   3.66322 
 H-HC-0.0171           2.87206  -0.49137   5.12414 
 H-HA-0.1313           2.33903  -2.53144   2.91735 
 H-HA-0.1359           2.88466  -4.19785   4.42159 
 H-HC-0.0092           4.05162  -2.02879   6.23669 
 H-HC-0.0092           4.4147   -3.72708   6.26331 
 H-HC-0.0318           3.07062  -2.99218   8.19551 
 H-HC-0.0318           1.79704  -2.45164   7.15438 
 H-HC-0.0435           2.74724  -5.34768   7.22928 
 H-HC-0.0435           1.37599  -4.73082   6.35055 
 H-HC-0.1066           1.33283  -7.09851   8.20299 
 H-HC-0.1066           0.0459   -6.47747   7.1959 
 H-HC-0.1066          -0.21397  -6.71044   8.9291 
 H-H-0.3529            2.61708  -4.38826   9.6584 
 H-HC-0.1047           1.7472   -5.24247   12.9546 
 H-HC-0.1047           2.03308  -3.67726   12.20328 
 H-HC-0.1047           3.15335  -5.00252   11.90516 
 H-H-0.3615           -1.45642  -5.04415   7.64336 
 H-H1-0.1469          -3.09792  -3.45282   7.34459 
 H-H1-0.1469          -1.96999  -2.17975   7.79976 
 H-H1-0.1469          -2.72534  -3.15963   9.04647 
 H-H-0.3570            4.94962  -0.3744   -0.41628 
 H-HC-0.1060           3.85183   0.36692  -3.67637 
 H-HC-0.1060           4.80544  -0.79055  -2.73653 
 H-HC-0.1060           5.32767   0.88233  -2.87147 
 
 The following ModRedundant input section has been read:
 D    *    3    5    * F                                                       
 Stoichiometry    C20H36N4O4
 Framework group  C1[X(C20H36N4O4)]
 Deg. of freedom   186
 Full point group                 C1      NOp   1
 Largest Abelian subgroup         C1      NOp   1
 Largest concise Abelian subgroup C1      NOp   1
                         Standard orientation:                         
 ---------------------------------------------------------------------
 Center     Atomic      Atomic             Coordinates (Angstroms)
 Number     Number       Type             X           Y           Z
 ---------------------------------------------------------------------
      1          6    20001001       -4.534310    3.082077    0.263897
      2          7    20001014       -4.848180    1.670415    0.340991
      3          6    20001002       -4.293776    0.806488   -0.541265
      4          8    20001024       -3.376718    1.110542   -1.252813
      5          6    90000001       -4.809180   -0.643189   -0.494568
      6          6    90000002       -5.414849   -1.016388   -1.851671
      7          6    90000002       -3.656985   -1.607528   -0.102013
      8          6    90000002       -2.414338   -1.693851   -1.006454
      9          6    90000002       -1.320621   -0.622944   -0.823211
     10          6    20001004       -0.768568   -0.542011    0.580699
     11          6    20001004        0.346354   -1.085765    1.041175
     12          6    90000002        1.343150   -1.923460    0.276702
     13          6    90000002        2.621697   -1.170396   -0.132899
     14          6    90000002        3.411980   -0.645311    1.073191
     15          6    90000002        4.808760   -0.023694    0.813876
     16          6    90000002        5.353421    0.474402    2.162466
     17          7    20001014        5.687420   -1.059893    0.288730
     18          6    20001002        6.940594   -0.768700   -0.167141
     19          6    20001001        7.576182   -1.845419   -1.016557
     20          8    20001024        7.501699    0.261583    0.083499
     21          6    20001002        4.664682    1.078735   -0.259725
     22          8    20001024        4.662574    0.791668   -1.426566
     23          7    20001014        4.441137    2.339661    0.169314
     24          6    20001001        4.347318    3.428159   -0.781776
     25          7    20001014       -5.805691   -0.798900    0.575082
     26          6    20001002       -6.975241   -0.099559    0.627490
     27          6    20001001       -8.009753   -0.647988    1.588286
     28          8    20001024       -7.169877    0.884649   -0.027942
     29          1    20001035       -4.913322    3.530273   -0.647376
     30          1    20001035       -3.463450    3.220060    0.294596
     31          1    20001035       -4.976300    3.581533    1.116858
     32          1    20001029       -5.735394    1.419994    0.710350
     33          1    20001034       -4.698821   -0.885531   -2.648613
     34          1    20001034       -5.736567   -2.053353   -1.830731
     35          1    20001034       -6.266145   -0.388048   -2.069404
     36          1    20001034       -4.102057   -2.599680   -0.074307
     37          1    20001034       -3.351549   -1.382820    0.915088
     38          1    20001034       -1.959383   -2.660729   -0.812082
     39          1    20001034       -2.714495   -1.706478   -2.049105
     40          1    20001034       -1.700723    0.348811   -1.110579
     41          1    20001034       -0.526601   -0.853062   -1.524931
     42          1    20001033       -1.361335    0.032215    1.274245
     43          1    20001033        0.585254   -0.916366    2.079439
     44          1    20001034        0.886287   -2.327787   -0.618430
     45          1    20001034        1.617725   -2.780484    0.890473
     46          1    20001034        3.228409   -1.848083   -0.727050
     47          1    20001034        2.359377   -0.351771   -0.790068
     48          1    20001034        3.560277   -1.452828    1.786956
     49          1    20001034        2.816559    0.107737    1.575925
     50          1    20001034        5.515015   -0.380652    2.808493
     51          1    20001034        4.640798    1.125717    2.657783
     52          1    20001034        6.294191    0.991293    2.046222
     53          1    20001029        5.230719   -1.798943   -0.194944
     54          1    20001034        8.647148   -1.710921   -1.014397
     55          1    20001034        7.214122   -1.741316   -2.034987
     56          1    20001034        7.329535   -2.841416   -0.665078
     57          1    20001029        4.686410    2.571848    1.102716
     58          1    20001035        4.047801    4.323744   -0.253440
     59          1    20001035        3.604253    3.195510   -1.530344
     60          1    20001035        5.293312    3.608414   -1.282131
     61          1    20001029       -5.791151   -1.673153    1.051543
     62          1    20001034       -8.697768    0.142871    1.849338
     63          1    20001034       -7.560429   -1.053409    2.487894
     64          1    20001034       -8.565030   -1.441652    1.098829
 ---------------------------------------------------------------------
 Rotational constants (GHZ):      0.4163857      0.0486845      0.0465501
 Standard basis: 6-31G(d) (6D, 7F)
 There are   492 symmetry adapted basis functions of A   symmetry.
 Integral buffers will be    131072 words long.
 Raffenetti 1 integral format.
 Two-electron integral symmetry is turned on.
   492 basis functions,   928 primitive gaussians,   492 cartesian basis functions
   108 alpha electrons      108 beta electrons
       nuclear repulsion energy      2684.4386382571 Hartrees.
 NAtoms=   64 NActive=   64 NUniq=   64 SFac= 7.50D-01 NAtFMM=   80 NAOKFM=F Big=T
 One-electron integrals computed using PRISM.
 NBasis=   492 RedAO= T  NBF=   492
 NBsUse=   492 1.00D-06 NBFU=   492
 Harris functional with IExCor=  205 diagonalized for initial guess.
 ExpMin= 1.61D-01 ExpMax= 5.48D+03 ExpMxC= 8.25D+02 IAcc=1 IRadAn=         1 AccDes= 0.00D+00
 HarFok:  IExCor=  205 AccDes= 0.00D+00 IRadAn=         1 IDoV= 1
 ScaDFX=  1.000000  1.000000  1.000000  1.000000
 FoFCou: FMM=F IPFlag=           0 FMFlag=      100000 FMFlg1=           1
         NFxFlg=           0 DoJE=T BraDBF=F KetDBF=T FulRan=T
         Omega=  0.000000  0.000000  1.000000  0.000000  0.000000 ICntrl=     500 IOpCl=  0
         NMat0=    1 NMatS0=    1 NMatT0=    0 NMatD0=    1 NMtDS0=    0 NMtDT0=    0
         I1Cent=           4 NGrid=           0.
 Petite list used in FoFCou.
 Initial guess orbital symmetries:
       Occupied  (A) (A) (A) (A) (A) (A) (A) (A) (A) (A) (A) (A)
                 (A) (A) (A) (A) (A) (A) (A) (A) (A) (A) (A) (A)
                 (A) (A) (A) (A) (A) (A) (A) (A) (A) (A) (A) (A)
                 (A) (A) (A) (A) (A) (A) (A) (A) (A) (A) (A) (A)
                 (A) (A) (A) (A) (A) (A) (A) (A) (A) (A) (A) (A)
                 (A) (A) (A) (A) (A) (A) (A) (A) (A) (A) (A) (A)
                 (A) (A) (A) (A) (A) (A) (A) (A) (A) (A) (A) (A)
                 (A) (A) (A) (A) (A) (A) (A) (A) (A) (A) (A) (A)
                 (A) (A) (A) (A) (A) (A) (A) (A) (A) (A) (A) (A)
       Virtual   (A) (A) (A) (A) (A) (A) (A) (A) (A) (A) (A) (A)
                 (A) (A) (A) (A) (A) (A) (A) (A) (A) (A) (A) (A)
                 (A) (A) (A) (A) (A) (A) (A) (A) (A) (A) (A) (A)
                 (A) (A) (A) (A) (A) (A) (A) (A) (A) (A) (A) (A)
                 (A) (A) (A) (A) (A) (A) (A) (A) (A) (A) (A) (A)
                 (A) (A) (A) (A) (A) (A) (A) (A) (A) (A) (A) (A)
                 (A) (A) (A) (A) (A) (A) (A) (A) (A) (A) (A) (A)
                 (A) (A) (A) (A) (A) (A) (A) (A) (A) (A) (A) (A)
                 (A) (A) (A) (A) (A) (A) (A) (A) (A) (A) (A) (A)
                 (A) (A) (A) (A) (A) (A) (A) (A) (A) (A) (A) (A)
                 (A) (A) (A) (A) (A) (A) (A) (A) (A) (A) (A) (A)
                 (A) (A) (A) (A) (A) (A) (A) (A) (A) (A) (A) (A)
                 (A) (A) (A) (A) (A) (A) (A) (A) (A) (A) (A) (A)
                 (A) (A) (A) (A) (A) (A) (A) (A) (A) (A) (A) (A)
                 (A) (A) (A) (A) (A) (A) (A) (A) (A) (A) (A) (A)
                 (A) (A) (A) (A) (A) (A) (A) (A) (A) (A) (A) (A)
                 (A) (A) (A) (A) (A) (A) (A) (A) (A) (A) (A) (A)
                 (A) (A) (A) (A) (A) (A) (A) (A) (A) (A) (A) (A)
                 (A) (A) (A) (A) (A) (A) (A) (A) (A) (A) (A) (A)
                 (A) (A) (A) (A) (A) (A) (A) (A) (A) (A) (A) (A)
                 (A) (A) (A) (A) (A) (A) (A) (A) (A) (A) (A) (A)
                 (A) (A) (A) (A) (A) (A) (A) (A) (A) (A) (A) (A)
                 (A) (A) (A) (A) (A) (A) (A) (A) (A) (A) (A) (A)
                 (A) (A) (A) (A) (A) (A) (A) (A) (A) (A) (A) (A)
                 (A) (A) (A) (A) (A) (A) (A) (A) (A) (A) (A) (A)
                 (A) (A) (A) (A) (A) (A) (A) (A) (A) (A) (A) (A)
                 (A) (A) (A) (A) (A) (A) (A) (A) (A) (A) (A) (A)
                 (A) (A) (A) (A) (A) (A) (A) (A) (A) (A) (A) (A)
                 (A) (A) (A) (A) (A) (A) (A) (A) (A) (A) (A) (A)
                 (A) (A) (A) (A) (A) (A) (A) (A) (A) (A) (A) (A)
                 (A) (A) (A) (A) (A) (A) (A) (A) (A) (A) (A) (A)
                 (A) (A) (A) (A) (A) (A) (A) (A) (A) (A) (A) (A)
 The electronic state of the initial guess is 1-A.
 Requested convergence on RMS density matrix=1.00D-08 within 128 cycles.
 Requested convergence on MAX density matrix=1.00D-06.
 Requested convergence on             energy=1.00D-06.
 No special actions if energy rises.
 Integral accuracy reduced to 1.0D-05 until final iterations.
 Initial convergence to 1.0D-05 achieved.  Increase integral accuracy.
 SCF Done:  E(RHF) =  -1295.59035373     A.U. after   14 cycles
             Convg  =    0.5720D-08             -V/T =  2.0010

 **********************************************************************

            Population analysis using the SCF density.

 **********************************************************************

 Orbital symmetries:
       Occupied  (A) (A) (A) (A) (A) (A) (A) (A) (A) (A) (A) (A)
                 (A) (A) (A) (A) (A) (A) (A) (A) (A) (A) (A) (A)
                 (A) (A) (A) (A) (A) (A) (A) (A) (A) (A) (A) (A)
                 (A) (A) (A) (A) (A) (A) (A) (A) (A) (A) (A) (A)
                 (A) (A) (A) (A) (A) (A) (A) (A) (A) (A) (A) (A)
                 (A) (A) (A) (A) (A) (A) (A) (A) (A) (A) (A) (A)
                 (A) (A) (A) (A) (A) (A) (A) (A) (A) (A) (A) (A)
                 (A) (A) (A) (A) (A) (A) (A) (A) (A) (A) (A) (A)
                 (A) (A) (A) (A) (A) (A) (A) (A) (A) (A) (A) (A)
       Virtual   (A) (A) (A) (A) (A) (A) (A) (A) (A) (A) (A) (A)
                 (A) (A) (A) (A) (A) (A) (A) (A) (A) (A) (A) (A)
                 (A) (A) (A) (A) (A) (A) (A) (A) (A) (A) (A) (A)
                 (A) (A) (A) (A) (A) (A) (A) (A) (A) (A) (A) (A)
                 (A) (A) (A) (A) (A) (A) (A) (A) (A) (A) (A) (A)
                 (A) (A) (A) (A) (A) (A) (A) (A) (A) (A) (A) (A)
                 (A) (A) (A) (A) (A) (A) (A) (A) (A) (A) (A) (A)
                 (A) (A) (A) (A) (A) (A) (A) (A) (A) (A) (A) (A)
                 (A) (A) (A) (A) (A) (A) (A) (A) (A) (A) (A) (A)
                 (A) (A) (A) (A) (A) (A) (A) (A) (A) (A) (A) (A)
                 (A) (A) (A) (A) (A) (A) (A) (A) (A) (A) (A) (A)
                 (A) (A) (A) (A) (A) (A) (A) (A) (A) (A) (A) (A)
                 (A) (A) (A) (A) (A) (A) (A) (A) (A) (A) (A) (A)
                 (A) (A) (A) (A) (A) (A) (A) (A) (A) (A) (A) (A)
                 (A) (A) (A) (A) (A) (A) (A) (A) (A) (A) (A) (A)
                 (A) (A) (A) (A) (A) (A) (A) (A) (A) (A) (A) (A)
                 (A) (A) (A) (A) (A) (A) (A) (A) (A) (A) (A) (A)
                 (A) (A) (A) (A) (A) (A) (A) (A) (A) (A) (A) (A)
                 (A) (A) (A) (A) (A) (A) (A) (A) (A) (A) (A) (A)
                 (A) (A) (A) (A) (A) (A) (A) (A) (A) (A) (A) (A)
                 (A) (A) (A) (A) (A) (A) (A) (A) (A) (A) (A) (A)
                 (A) (A) (A) (A) (A) (A) (A) (A) (A) (A) (A) (A)
                 (A) (A) (A) (A) (A) (A) (A) (A) (A) (A) (A) (A)
                 (A) (A) (A) (A) (A) (A) (A) (A) (A) (A) (A) (A)
                 (A) (A) (A) (A) (A) (A) (A) (A) (A) (A) (A) (A)
                 (A) (A) (A) (A) (A) (A) (A) (A) (A) (A) (A) (A)
                 (A) (A) (A) (A) (A) (A) (A) (A) (A) (A) (A) (A)
                 (A) (A) (A) (A) (A) (A) (A) (A) (A) (A) (A) (A)
                 (A) (A) (A) (A) (A) (A) (A) (A) (A) (A) (A) (A)
                 (A) (A) (A) (A) (A) (A) (A) (A) (A) (A) (A) (A)
                 (A) (A) (A) (A) (A) (A) (A) (A) (A) (A) (A) (A)
                 (A) (A) (A) (A) (A) (A) (A) (A) (A) (A) (A) (A)
 The electronic state is 1-A.
 Alpha  occ. eigenvalues --  -20.54993 -20.51744 -20.51584 -20.51204 -15.60330
 Alpha  occ. eigenvalues --  -15.57525 -15.57170 -15.55601 -11.37341 -11.33951
 Alpha  occ. eigenvalues --  -11.33677 -11.33292 -11.29348 -11.28155 -11.25098
 Alpha  occ. eigenvalues --  -11.24640 -11.24120 -11.23677 -11.22876 -11.22257
 Alpha  occ. eigenvalues --  -11.22039 -11.21799 -11.21764 -11.21718 -11.21444
 Alpha  occ. eigenvalues --  -11.21218 -11.21033 -11.19186  -1.43071  -1.39024
 Alpha  occ. eigenvalues --   -1.38863  -1.37740  -1.26110  -1.23189  -1.22238
 Alpha  occ. eigenvalues --   -1.21264  -1.10000  -1.08996  -1.06783  -1.03844
 Alpha  occ. eigenvalues --   -1.01302  -0.99512  -0.98480  -0.94879  -0.94741
 Alpha  occ. eigenvalues --   -0.94218  -0.91790  -0.87042  -0.85273  -0.82506
 Alpha  occ. eigenvalues --   -0.81269  -0.79158  -0.78771  -0.77616  -0.76508
 Alpha  occ. eigenvalues --   -0.71791  -0.71440  -0.70923  -0.69537  -0.67591
 Alpha  occ. eigenvalues --   -0.66319  -0.65982  -0.64257  -0.63929  -0.63416
 Alpha  occ. eigenvalues --   -0.62904  -0.62092  -0.61484  -0.61279  -0.61022
 Alpha  occ. eigenvalues --   -0.60628  -0.60020  -0.59122  -0.58763  -0.58447
 Alpha  occ. eigenvalues --   -0.58251  -0.57425  -0.56702  -0.56057  -0.55859
 Alpha  occ. eigenvalues --   -0.55178  -0.54652  -0.54449  -0.54337  -0.53916
 Alpha  occ. eigenvalues --   -0.53371  -0.52669  -0.51930  -0.51731  -0.51509
 Alpha  occ. eigenvalues --   -0.51071  -0.49974  -0.49435  -0.48423  -0.47897
 Alpha  occ. eigenvalues --   -0.47763  -0.45873  -0.45793  -0.43641  -0.43376
 Alpha  occ. eigenvalues --   -0.42562  -0.41130  -0.40748  -0.39934  -0.38475
 Alpha  occ. eigenvalues --   -0.37905  -0.36331  -0.33436
 Alpha virt. eigenvalues --    0.17052   0.18288   0.20010   0.20089   0.20619
 Alpha virt. eigenvalues --    0.21957   0.22373   0.23627   0.23820   0.25136
 Alpha virt. eigenvalues --    0.25360   0.26003   0.26773   0.27714   0.28010
 Alpha virt. eigenvalues --    0.28135   0.28506   0.28932   0.29059   0.29695
 Alpha virt. eigenvalues --    0.30522   0.31203   0.31418   0.31847   0.32002
 Alpha virt. eigenvalues --    0.32523   0.32901   0.33170   0.33761   0.33968
 Alpha virt. eigenvalues --    0.34387   0.34857   0.35134   0.35216   0.35760
 Alpha virt. eigenvalues --    0.36015   0.36657   0.37327   0.37705   0.38061
 Alpha virt. eigenvalues --    0.39112   0.39418   0.39821   0.40118   0.40720
 Alpha virt. eigenvalues --    0.41171   0.41587   0.42328   0.43180   0.44099
 Alpha virt. eigenvalues --    0.44977   0.45152   0.46097   0.46467   0.47635
 Alpha virt. eigenvalues --    0.48234   0.49007   0.49558   0.52693   0.53894
 Alpha virt. eigenvalues --    0.54750   0.57038   0.58020   0.58297   0.60177
 Alpha virt. eigenvalues --    0.63344   0.65093   0.65704   0.69762   0.70541
 Alpha virt. eigenvalues --    0.71766   0.71914   0.72379   0.72510   0.73400
 Alpha virt. eigenvalues --    0.74175   0.74734   0.75980   0.76330   0.76731
 Alpha virt. eigenvalues --    0.77177   0.77470   0.77700   0.78407   0.79176
 Alpha virt. eigenvalues --    0.79637   0.80029   0.81008   0.81329   0.82401
 Alpha virt. eigenvalues --    0.84187   0.84460   0.85423   0.86101   0.86770
 Alpha virt. eigenvalues --    0.87742   0.88594   0.88701   0.90006   0.90972
 Alpha virt. eigenvalues --    0.91838   0.92283   0.92493   0.92943   0.93733
 Alpha virt. eigenvalues --    0.94318   0.96299   0.96810   0.97469   0.97982
 Alpha virt. eigenvalues --    0.98694   0.99588   1.00314   1.00484   1.00925
 Alpha virt. eigenvalues --    1.01568   1.02117   1.02509   1.03190   1.03495
 Alpha virt. eigenvalues --    1.04652   1.05280   1.05976   1.06716   1.07076
 Alpha virt. eigenvalues --    1.07898   1.08549   1.09078   1.09659   1.10844
 Alpha virt. eigenvalues --    1.11296   1.13456   1.13491   1.13797   1.14081
 Alpha virt. eigenvalues --    1.14717   1.14910   1.15298   1.15660   1.16227
 Alpha virt. eigenvalues --    1.16400   1.16814   1.17047   1.17432   1.17573
 Alpha virt. eigenvalues --    1.18355   1.18563   1.18709   1.19304   1.19466
 Alpha virt. eigenvalues --    1.19701   1.20086   1.20609   1.21465   1.21686
 Alpha virt. eigenvalues --    1.22038   1.22496   1.22641   1.23312   1.23423
 Alpha virt. eigenvalues --    1.23967   1.24364   1.24542   1.26122   1.26599
 Alpha virt. eigenvalues --    1.26822   1.28197   1.28701   1.29433   1.29951
 Alpha virt. eigenvalues --    1.30506   1.31351   1.31767   1.31971   1.32727
 Alpha virt. eigenvalues --    1.34575   1.35198   1.36280   1.37143   1.38291
 Alpha virt. eigenvalues --    1.39345   1.39606   1.42191   1.42373   1.43751
 Alpha virt. eigenvalues --    1.46179   1.47184   1.48064   1.48582   1.50212
 Alpha virt. eigenvalues --    1.50684   1.52282   1.53450   1.54675   1.56284
 Alpha virt. eigenvalues --    1.57617   1.59580   1.60669   1.60973   1.62059
 Alpha virt. eigenvalues --    1.63405   1.65960   1.67564   1.68757   1.69419
 Alpha virt. eigenvalues --    1.70638   1.72093   1.72970   1.73601   1.74625
 Alpha virt. eigenvalues --    1.74969   1.77107   1.78405   1.79070   1.81029
 Alpha virt. eigenvalues --    1.82412   1.83629   1.84484   1.87081   1.89864
 Alpha virt. eigenvalues --    1.90363   1.91314   1.91751   1.92479   1.95179
 Alpha virt. eigenvalues --    1.96229   1.97387   1.98815   1.99046   2.01989
 Alpha virt. eigenvalues --    2.03821   2.05075   2.07099   2.07919   2.08622
 Alpha virt. eigenvalues --    2.10268   2.10910   2.12052   2.12262   2.12504
 Alpha virt. eigenvalues --    2.12792   2.13164   2.14443   2.15459   2.16648
 Alpha virt. eigenvalues --    2.17191   2.17973   2.19006   2.19270   2.20050
 Alpha virt. eigenvalues --    2.20239   2.21191   2.22600   2.23130   2.23695
 Alpha virt. eigenvalues --    2.25078   2.25946   2.26487   2.27124   2.27765
 Alpha virt. eigenvalues --    2.28420   2.29557   2.29836   2.31698   2.32898
 Alpha virt. eigenvalues --    2.33259   2.34312   2.34729   2.36021   2.37364
 Alpha virt. eigenvalues --    2.37611   2.38433   2.38683   2.39619   2.39826
 Alpha virt. eigenvalues --    2.40219   2.40535   2.42472   2.44207   2.45802
 Alpha virt. eigenvalues --    2.46661   2.47366   2.48378   2.49970   2.50464
 Alpha virt. eigenvalues --    2.51533   2.52745   2.53148   2.55013   2.56166
 Alpha virt. eigenvalues --    2.56439   2.57554   2.57890   2.59635   2.61053
 Alpha virt. eigenvalues --    2.62365   2.63567   2.64653   2.65168   2.65290
 Alpha virt. eigenvalues --    2.67121   2.68035   2.69721   2.70535   2.70687
 Alpha virt. eigenvalues --    2.72031   2.74006   2.75371   2.76359   2.76995
 Alpha virt. eigenvalues --    2.77231   2.78247   2.78725   2.79900   2.81136
 Alpha virt. eigenvalues --    2.82662   2.83223   2.84654   2.85737   2.86742
 Alpha virt. eigenvalues --    2.88043   2.88979   2.91968   2.92908   2.96222
 Alpha virt. eigenvalues --    2.97615   2.98284   2.98921   3.00688   3.01773
 Alpha virt. eigenvalues --    3.03561   3.04413   3.05890   3.06672   3.08611
 Alpha virt. eigenvalues --    3.11476   3.11861   3.13530   3.13832   3.16183
 Alpha virt. eigenvalues --    3.18722   3.19317   3.23137   3.27878   3.30975
 Alpha virt. eigenvalues --    3.34761   3.36567   3.38234   3.40885   3.42334
 Alpha virt. eigenvalues --    3.43074   3.45282   3.56089   3.56638   3.57941
 Alpha virt. eigenvalues --    3.59273   4.38810   4.38945   4.46618   4.49537
 Alpha virt. eigenvalues --    4.52223   4.55624   4.56388   4.59002   4.61944
 Alpha virt. eigenvalues --    4.63444   4.66720   4.67799   4.69019   4.70502
 Alpha virt. eigenvalues --    4.72131   4.78238   4.80946   4.83785   4.85486
 Alpha virt. eigenvalues --    4.89877   4.90714   4.94325   4.97195   4.98284
 Alpha virt. eigenvalues --    5.00477   5.03896   5.23979   5.32073
          Condensed to atoms (all electrons):
 Mulliken atomic charges:
              1
     1  C   -0.274218
     2  N   -0.793668
     3  C    0.806229
     4  O   -0.643218
     5  C    0.117898
     6  C   -0.488622
     7  C   -0.339158
     8  C   -0.302206
     9  C   -0.374956
    10  C   -0.175648
    11  C   -0.182919
    12  C   -0.350408
    13  C   -0.310137
    14  C   -0.328592
    15  C    0.090787
    16  C   -0.509519
    17  N   -0.787682
    18  C    0.767400
    19  C   -0.595554
    20  O   -0.614481
    21  C    0.821039
    22  O   -0.639690
    23  N   -0.805448
    24  C   -0.275274
    25  N   -0.822118
    26  C    0.727864
    27  C   -0.585176
    28  O   -0.617407
    29  H    0.174900
    30  H    0.189989
    31  H    0.162707
    32  H    0.435455
    33  H    0.201061
    34  H    0.156643
    35  H    0.205595
    36  H    0.156303
    37  H    0.187732
    38  H    0.157282
    39  H    0.170285
    40  H    0.268323
    41  H    0.158851
    42  H    0.169600
    43  H    0.164817
    44  H    0.177464
    45  H    0.156179
    46  H    0.148242
    47  H    0.200369
    48  H    0.171997
    49  H    0.186083
    50  H    0.182899
    51  H    0.148677
    52  H    0.225489
    53  H    0.389982
    54  H    0.210297
    55  H    0.209280
    56  H    0.176066
    57  H    0.394936
    58  H    0.164371
    59  H    0.200475
    60  H    0.183681
    61  H    0.389222
    62  H    0.218220
    63  H    0.186649
    64  H    0.204756
 Sum of Mulliken atomic charges =   0.00000
 Mulliken charges with hydrogens summed into heavy atoms:
              1
     1  C    0.253379
     2  N   -0.358213
     3  C    0.806229
     4  O   -0.643218
     5  C    0.117898
     6  C    0.074677
     7  C    0.004877
     8  C    0.025361
     9  C    0.052219
    10  C   -0.006048
    11  C   -0.018102
    12  C   -0.016765
    13  C    0.038474
    14  C    0.029489
    15  C    0.090787
    16  C    0.047546
    17  N   -0.397699
    18  C    0.767400
    19  C    0.000089
    20  O   -0.614481
    21  C    0.821039
    22  O   -0.639690
    23  N   -0.410512
    24  C    0.273254
    25  N   -0.432895
    26  C    0.727864
    27  C    0.024448
    28  O   -0.617407
 Sum of Mulliken charges with hydrogens summed into heavy atoms =   0.00000
 Electronic spatial extent (au):  <R**2>=          22418.7895
 Charge=              0.0000 electrons
 Dipole moment (field-independent basis, Debye):
    X=             -5.4793    Y=             -4.1594    Z=              4.8393  Tot=              8.4108
 Quadrupole moment (field-independent basis, Debye-Ang):
   XX=           -175.1006   YY=           -154.9438   ZZ=           -171.8772
   XY=              9.7614   XZ=            -10.1189   YZ=              7.1555
 Traceless Quadrupole moment (field-independent basis, Debye-Ang):
   XX=             -7.7934   YY=             12.3634   ZZ=             -4.5700
   XY=              9.7614   XZ=            -10.1189   YZ=              7.1555
 Octapole moment (field-independent basis, Debye-Ang**2):
  XXX=           -428.5552  YYY=             53.1470  ZZZ=              6.5239  XYY=             38.5432
  XXY=           -213.2554  XXZ=            125.2495  XZZ=            -18.2135  YZZ=              1.5548
  YYZ=              3.1121  XYZ=             20.5660
 Hexadecapole moment (field-independent basis, Debye-Ang**3):
 XXXX=         -26829.7465 YYYY=          -2354.5180 ZZZZ=          -1229.1540 XXXY=            159.1866
 XXXZ=           -950.8938 YYYX=             73.6310 YYYZ=              0.6520 ZZZX=            -14.6566
 ZZZY=              5.3914 XXYY=          -4246.3389 XXZZ=          -4344.8762 YYZZ=           -612.5141
 XXYZ=            158.3027 YYXZ=            -60.2992 ZZXY=             15.6647
 N-N= 2.684438638257D+03 E-N=-8.401592468619D+03  KE= 1.294248848298D+03
 1\1\GINC-MOSURA\SP\RHF\6-31G(d)\C20H36N4O4\MARIE\05-Dec-2019\0\\#SP HF
 /6-31G* Geom=(ModRedundant)\\paramfit run\\0,1\C,0,0.,0.,0.\N,0,1.4481
 87,0.,0.\C,0,2.1232,0.47592,1.072365\O,0,1.590179,0.696732,2.124447\C,
 0,3.650505,0.594143,0.921539\C,0,4.073315,2.054649,1.111266\C,0,4.3617
 ,-0.339953,1.938036\C,0,4.128375,-0.120866,3.443757\C,0,2.857188,-0.73
 1271,4.066755\C,0,2.733385,-2.224325,3.872489\C,0,3.046297,-3.178174,4
 .734472\C,0,3.606129,-3.010057,6.126621\C,0,2.573149,-3.199258,7.25210
 7\C,0,1.954233,-4.603473,7.258162\C,0,1.031761,-4.98759,8.443972\C,0,0
 .499973,-6.405445,8.178756\N,0,1.823434,-4.987236,9.666585\C,0,1.24371
 3,-5.149052,10.891655\C,0,2.110304,-4.751463,12.064577\O,0,0.131148,-5
 .574387,11.034593\C,0,-0.068789,-3.910959,8.57955\O,0,0.149378,-2.8937
 86,9.180959\N,0,-1.226623,-4.117697,7.915727\C,0,-2.317965,-3.173472,8
 .040686\N,0,4.075208,0.101594,-0.396965\C,0,3.649776,0.63571,-1.577389
 \C,0,4.459734,0.235533,-2.793097\O,0,2.697684,1.359487,-1.653593\H,0,-
 0.403259,1.006147,0.\H,0,-0.36496,-0.516002,0.875939\H,0,-0.345658,-0.
 522086,-0.883346\H,0,1.904244,0.070913,-0.879357\H,0,3.748147,2.434684
 ,2.067704\H,0,5.154968,2.12847,1.049499\H,0,3.633736,2.67625,0.344906\
 H,0,5.426765,-0.212479,1.757457\H,0,4.130606,-1.368728,1.680163\H,0,4.
 98261,-0.55662,3.953677\H,0,4.150233,0.939673,3.67213\H,0,1.977026,-0.
 247705,3.663216\H,0,2.872056,-0.491373,5.124139\H,0,2.339035,-2.53144,
 2.917354\H,0,2.884664,-4.19785,4.421587\H,0,4.051623,-2.02879,6.236694
 \H,0,4.414701,-3.727081,6.263308\H,0,3.07062,-2.992176,8.195513\H,0,1.
 797041,-2.451638,7.154382\H,0,2.747239,-5.347679,7.229275\H,0,1.375988
 ,-4.730815,6.350546\H,0,1.332829,-7.098514,8.202991\H,0,0.045902,-6.47
 7469,7.195896\H,0,-0.213966,-6.710437,8.929095\H,0,2.617078,-4.388258,
 9.658404\H,0,1.747199,-5.242466,12.954595\H,0,2.033081,-3.677255,12.20
 3279\H,0,3.153348,-5.002517,11.905159\H,0,-1.456424,-5.044152,7.643362
 \H,0,-3.09792,-3.452819,7.344585\H,0,-1.969986,-2.179747,7.799758\H,0,
 -2.725338,-3.159628,9.046473\H,0,4.949624,-0.374399,-0.416284\H,0,3.85
 1834,0.366921,-3.676367\H,0,4.805436,-0.790548,-2.736534\H,0,5.327671,
 0.882329,-2.871472\\Version=EM64L-G09RevA.02\State=1-A\HF=-1295.590353
 7\RMSD=5.720e-09\Dipole=2.1637133,-0.7740976,-2.3809614\Quadrupole=11.
 1402479,-10.9272184,-0.2130295,5.6256467,-1.3929132,6.8562528\PG=C01 [
 X(C20H36N4O4)]\\@


 Fatherhood is pretending the present you love most is soap-on-a-rope.
 -- Bill Cosby
 Job cpu time:  0 days  0 hours  5 minutes 12.0 seconds.
 File lengths (MBytes):  RWF=    132 Int=      0 D2E=      0 Chk=     10 Scr=      1
 Normal termination of Gaussian 09 at Thu Dec  5 16:31:13 2019.
