 Entering Gaussian System, Link 0=g09
 Input=PSI_-100.gau
 Output=PSI_-100.log
 Initial command:
 /home/marie/Utilities//g09/l1.exe /tmp/g09/Gau-4882.inp -scrdir=/tmp/g09/
 Entering Link 1 = /home/marie/Utilities//g09/l1.exe PID=      4918.
  
 Copyright (c) 1988,1990,1992,1993,1995,1998,2003,2009, Gaussian, Inc.
                  All Rights Reserved.
  
 This is part of the Gaussian(R) 09 program.  It is based on
 the Gaussian(R) 03 system (copyright 2003, Gaussian, Inc.),
 the Gaussian(R) 98 system (copyright 1998, Gaussian, Inc.),
 the Gaussian(R) 94 system (copyright 1995, Gaussian, Inc.),
 the Gaussian 92(TM) system (copyright 1992, Gaussian, Inc.),
 the Gaussian 90(TM) system (copyright 1990, Gaussian, Inc.),
 the Gaussian 88(TM) system (copyright 1988, Gaussian, Inc.),
 the Gaussian 86(TM) system (copyright 1986, Carnegie Mellon
 University), and the Gaussian 82(TM) system (copyright 1983,
 Carnegie Mellon University). Gaussian is a federally registered
 trademark of Gaussian, Inc.
  
 This software contains proprietary and confidential information,
 including trade secrets, belonging to Gaussian, Inc.
  
 This software is provided under written license and may be
 used, copied, transmitted, or stored only in accord with that
 written license.
  
 The following legend is applicable only to US Government
 contracts under FAR:
  
                    RESTRICTED RIGHTS LEGEND
  
 Use, reproduction and disclosure by the US Government is
 subject to restrictions as set forth in subparagraphs (a)
 and (c) of the Commercial Computer Software - Restricted
 Rights clause in FAR 52.227-19.
  
 Gaussian, Inc.
 340 Quinnipiac St., Bldg. 40, Wallingford CT 06492
  
  
 ---------------------------------------------------------------
 Warning -- This program may not be used in any manner that
 competes with the business of Gaussian, Inc. or will provide
 assistance to any competitor of Gaussian, Inc.  The licensee
 of this program is prohibited from giving any competitor of
 Gaussian, Inc. access to this program.  By using this program,
 the user acknowledges that Gaussian, Inc. is engaged in the
 business of creating and licensing software in the field of
 computational chemistry and represents and warrants to the
 licensee that it is not a competitor of Gaussian, Inc. and that
 it will not use this program in any manner prohibited above.
 ---------------------------------------------------------------
  

 Cite this work as:
 Gaussian 09, Revision A.02,
 M. J. Frisch, G. W. Trucks, H. B. Schlegel, G. E. Scuseria, 
 M. A. Robb, J. R. Cheeseman, G. Scalmani, V. Barone, B. Mennucci, 
 G. A. Petersson, H. Nakatsuji, M. Caricato, X. Li, H. P. Hratchian, 
 A. F. Izmaylov, J. Bloino, G. Zheng, J. L. Sonnenberg, M. Hada, 
 M. Ehara, K. Toyota, R. Fukuda, J. Hasegawa, M. Ishida, T. Nakajima, 
 Y. Honda, O. Kitao, H. Nakai, T. Vreven, J. A. Montgomery, Jr., 
 J. E. Peralta, F. Ogliaro, M. Bearpark, J. J. Heyd, E. Brothers, 
 K. N. Kudin, V. N. Staroverov, R. Kobayashi, J. Normand, 
 K. Raghavachari, A. Rendell, J. C. Burant, S. S. Iyengar, J. Tomasi, 
 M. Cossi, N. Rega, J. M. Millam, M. Klene, J. E. Knox, J. B. Cross, 
 V. Bakken, C. Adamo, J. Jaramillo, R. Gomperts, R. E. Stratmann, 
 O. Yazyev, A. J. Austin, R. Cammi, C. Pomelli, J. W. Ochterski, 
 R. L. Martin, K. Morokuma, V. G. Zakrzewski, G. A. Voth, 
 P. Salvador, J. J. Dannenberg, S. Dapprich, A. D. Daniels, 
 O. Farkas, J. B. Foresman, J. V. Ortiz, J. Cioslowski, 
 and D. J. Fox, Gaussian, Inc., Wallingford CT, 2009.
 
 ******************************************
 Gaussian 09:  EM64L-G09RevA.02 11-Jun-2009
                 5-Dec-2019 
 ******************************************
 %chk=PSI_-100
 %NoSave
 ---------------------------------
 #SP HF/6-31G* Geom=(ModRedundant)
 ---------------------------------
 1/18=120,38=1/1;
 2/12=2,17=6,18=5,40=1/2;
 3/5=1,6=6,7=1,11=9,16=1,25=1,30=1/1,2,3;
 4//1;
 5/5=2,38=5/2;
 6/7=2,8=2,9=2,10=2,28=1/1;
 99/5=1,9=1/99;
 ------------
 paramfit run
 ------------
 Symbolic Z-matrix:
 Charge =  0 Multiplicity = 1
 C-CT--0.3208          0.        0.        0. 
 N-N--0.5622           1.44819   0.        0. 
 C-C-0.8053            2.1232    0.47592   1.07237 
 O-O--0.6151           1.59018   0.69673   2.12445 
 C-CX-0.0839           3.65051   0.59414   0.92154 
 C-CU--0.3230          4.32708  -0.60271   1.59803 
 C-CU--0.0657          4.03334   0.68907  -0.58047 
 C-CU--0.0109          3.66549  -0.47352  -1.51999 
 C-CU-0.0816           2.23229  -0.50893  -2.08684 
 C-CM--0.2354          1.84066   0.73688  -2.84636 
 C-CM--0.2653          1.85111   0.91882  -4.15691 
 C-CU-0.1214           2.25853  -0.07453  -5.21853 
 C-CU--0.0354          1.07877  -0.7383   -5.95141 
 C-CU--0.0984          0.19862   0.2745   -6.69605 
 C-CU-0.1300          -0.91955  -0.27335  -7.62028 
 C-CU--0.3561         -1.68446   0.93261  -8.18949 
 N-N--0.7186          -0.29904  -1.01296  -8.71091 
 C-C-0.8537           -1.04472  -1.72981  -9.60149 
 C-CT--0.3868         -0.26678  -2.73185  -10.4234 
 O-O--0.6323          -2.22835  -1.58114  -9.72824 
 C-C-0.7903           -1.79385  -1.25396  -6.80619 
 O-O--0.6136          -1.45426  -2.3985   -6.66971 
 N-N--0.5650          -2.87963  -0.74844  -6.18207 
 C-CT--0.3231         -3.76983  -1.62142  -5.44475 
 N-N--0.7191           4.12756   1.85519   1.50773 
 C-C-0.8539            3.9637    2.18968   2.81957 
 C-CT--0.3903          4.82115   3.34158   3.30128 
 O-O--0.6290           3.18999   1.62422   3.53913 
 H-H1-0.1459          -0.40326   1.00615   0. 
 H-H1-0.1459          -0.36496  -0.516     0.87594 
 H-H1-0.1459          -0.34566  -0.52209  -0.88335 
 H-H-0.3572            1.90424   0.07091  -0.87936 
 H-HC-0.0997           3.9689   -1.53587   1.19079 
 H-HC-0.0997           5.40127  -0.54082   1.45128 
 H-HC-0.0997           4.11609  -0.60492   2.65747 
 H-HC-0.0347           5.11652   0.78658  -0.60104 
 H-HC-0.0347           3.63686   1.61779  -0.97868 
 H-HC-0.0243           4.34787  -0.41509  -2.36293 
 H-HC-0.0243           3.86834  -1.42202  -1.03359 
 H-HC-0.0171           1.52112  -0.6746   -1.288 
 H-HC-0.0171           2.1648   -1.37757  -2.73239 
 H-HA-0.1313           1.51327   1.56258  -2.2355 
 H-HA-0.1359           1.53072   1.88146  -4.52359 
 H-HC-0.0092           2.87223  -0.85576  -4.78667 
 H-HC-0.0092           2.88659   0.43618  -5.94745 
 H-HC-0.0318           1.48813  -1.47339  -6.63876 
 H-HC-0.0318           0.48356  -1.29517  -5.23975 
 H-HC-0.0435           0.82643   0.91243  -7.31447 
 H-HC-0.0435          -0.27792   0.92025  -5.96786 
 H-HC-0.1066          -1.01429   1.50017  -8.82459 
 H-HC-0.1066          -2.02009   1.59444  -7.39784 
 H-HC-0.1066          -2.5309    0.62342  -8.7842 
 H-H-0.3529            0.59222  -1.40341  -8.50618 
 H-HC-0.1047          -0.82583  -2.96631  -11.31646 
 H-HC-0.1047          -0.14663  -3.63939  -9.83939 
 H-HC-0.1047           0.71761  -2.36367  -10.69135 
 H-H-0.3615           -3.25286   0.11249  -6.50582 
 H-H1-0.1469          -4.49847  -1.01297  -4.92534 
 H-H1-0.1469          -3.20558  -2.19053  -4.72063 
 H-H1-0.1469          -4.28636  -2.3159   -6.09947 
 H-H-0.3570            4.88637   2.29004   1.03164 
 H-HC-0.1060           4.36389   3.77385   4.17937 
 H-HC-0.1060           4.94774   4.10484   2.5417 
 H-HC-0.1060           5.8027    2.96602   3.57204 
 
 The following ModRedundant input section has been read:
 D    *    3    5    * F                                                       
 Stoichiometry    C20H36N4O4
 Framework group  C1[X(C20H36N4O4)]
 Deg. of freedom   186
 Full point group                 C1      NOp   1
 Largest Abelian subgroup         C1      NOp   1
 Largest concise Abelian subgroup C1      NOp   1
                         Standard orientation:                         
 ---------------------------------------------------------------------
 Center     Atomic      Atomic             Coordinates (Angstroms)
 Number     Number       Type             X           Y           Z
 ---------------------------------------------------------------------
      1          6    20001001       -2.441833    2.416091   -0.280011
      2          7    20001014       -3.055707    1.127201   -0.523254
      3          6    20001002       -4.387810    0.969130   -0.342637
      4          8    20001024       -5.134963    1.897749   -0.204159
      5          6    90000001       -4.928052   -0.467418   -0.460341
      6          6    90000002       -5.551723   -0.669193   -1.845318
      7          6    90000002       -3.789574   -1.489802   -0.195388
      8          6    90000002       -2.556398   -1.489946   -1.116752
      9          6    90000002       -1.442608   -0.465893   -0.821077
     10          6    20001004       -0.877252   -0.558938    0.576777
     11          6    20001004        0.231891   -1.171030    0.958749
     12          6    90000002        1.207327   -1.929645    0.091120
     13          6    90000002        2.495295   -1.154815   -0.241059
     14          6    90000002        3.304909   -0.787556    1.009766
     15          6    90000002        4.710071   -0.162782    0.810219
     16          6    90000002        5.274855    0.165010    2.201988
     17          7    20001014        5.565971   -1.144598    0.158295
     18          6    20001002        6.820102   -0.822566   -0.273571
     19          6    20001001        7.429496   -1.802676   -1.249702
     20          8    20001024        7.401247    0.161966    0.089894
     21          6    20001002        4.576116    1.059977   -0.125539
     22          8    20001024        4.559023    0.911579   -1.317854
     23          7    20001014        4.378313    2.265482    0.450321
     24          6    20001001        4.295409    3.459241   -0.365931
     25          7    20001014       -5.917959   -0.730979    0.594199
     26          6    20001002       -7.074617   -0.023550    0.740329
     27          6    20001001       -8.110310   -0.663710    1.641249
     28          8    20001024       -7.257617    1.033682    0.206558
     29          1    20001035       -2.487951    2.693597    0.766800
     30          1    20001035       -2.946329    3.175703   -0.858973
     31          1    20001035       -1.405650    2.369586   -0.590682
     32          1    20001029       -2.490801    0.320986   -0.392169
     33          1    20001034       -4.840353   -0.457654   -2.628989
     34          1    20001034       -5.891323   -1.696076   -1.942382
     35          1    20001034       -6.393738   -0.005842   -1.979113
     36          1    20001034       -4.251665   -2.470960   -0.279195
     37          1    20001034       -3.471581   -1.390755    0.837739
     38          1    20001034       -2.116766   -2.480243   -1.041567
     39          1    20001034       -2.865627   -1.375494   -2.150509
     40          1    20001034       -1.808112    0.538909   -0.988832
     41          1    20001034       -0.658754   -0.625223   -1.553211
     42          1    20001033       -1.453946   -0.060249    1.338909
     43          1    20001033        0.482576   -1.128294    2.007125
     44          1    20001034        0.735838   -2.218854   -0.840288
     45          1    20001034        1.472117   -2.857013    0.597549
     46          1    20001034        3.084972   -1.768105   -0.916728
     47          1    20001034        2.241715   -0.260694   -0.795203
     48          1    20001034        3.445162   -1.675408    1.622614
     49          1    20001034        2.727055   -0.088913    1.603343
     50          1    20001034        5.426996   -0.762331    2.741870
     51          1    20001034        4.577981    0.765419    2.777538
     52          1    20001034        6.223488    0.676500    2.137080
     53          1    20001029        5.092308   -1.814363   -0.403639
     54          1    20001034        8.502628   -1.686890   -1.243106
     55          1    20001034        7.060623   -1.574135   -2.245104
     56          1    20001034        7.168493   -2.828807   -1.014512
     57          1    20001029        4.635572    2.382740    1.401834
     58          1    20001035        4.016113    4.291582    0.266621
     59          1    20001035        3.542024    3.328025   -1.128702
     60          1    20001035        5.240100    3.681344   -0.851711
     61          1    20001029       -5.914629   -1.655127    0.964990
     62          1    20001034       -8.782144    0.102292    2.000212
     63          1    20001034       -7.660472   -1.178968    2.482501
     64          1    20001034       -8.683533   -1.385415    1.068224
 ---------------------------------------------------------------------
 Rotational constants (GHZ):      0.4456994      0.0498992      0.0478420
 Standard basis: 6-31G(d) (6D, 7F)
 There are   492 symmetry adapted basis functions of A   symmetry.
 Integral buffers will be    131072 words long.
 Raffenetti 1 integral format.
 Two-electron integral symmetry is turned on.
   492 basis functions,   928 primitive gaussians,   492 cartesian basis functions
   108 alpha electrons      108 beta electrons
       nuclear repulsion energy      2713.5483847476 Hartrees.
 NAtoms=   64 NActive=   64 NUniq=   64 SFac= 7.50D-01 NAtFMM=   80 NAOKFM=F Big=T
 One-electron integrals computed using PRISM.
 NBasis=   492 RedAO= T  NBF=   492
 NBsUse=   492 1.00D-06 NBFU=   492
 Harris functional with IExCor=  205 diagonalized for initial guess.
 ExpMin= 1.61D-01 ExpMax= 5.48D+03 ExpMxC= 8.25D+02 IAcc=1 IRadAn=         1 AccDes= 0.00D+00
 HarFok:  IExCor=  205 AccDes= 0.00D+00 IRadAn=         1 IDoV= 1
 ScaDFX=  1.000000  1.000000  1.000000  1.000000
 FoFCou: FMM=F IPFlag=           0 FMFlag=      100000 FMFlg1=           1
         NFxFlg=           0 DoJE=T BraDBF=F KetDBF=T FulRan=T
         Omega=  0.000000  0.000000  1.000000  0.000000  0.000000 ICntrl=     500 IOpCl=  0
         NMat0=    1 NMatS0=    1 NMatT0=    0 NMatD0=    1 NMtDS0=    0 NMtDT0=    0
         I1Cent=           4 NGrid=           0.
 Petite list used in FoFCou.
 Initial guess orbital symmetries:
       Occupied  (A) (A) (A) (A) (A) (A) (A) (A) (A) (A) (A) (A)
                 (A) (A) (A) (A) (A) (A) (A) (A) (A) (A) (A) (A)
                 (A) (A) (A) (A) (A) (A) (A) (A) (A) (A) (A) (A)
                 (A) (A) (A) (A) (A) (A) (A) (A) (A) (A) (A) (A)
                 (A) (A) (A) (A) (A) (A) (A) (A) (A) (A) (A) (A)
                 (A) (A) (A) (A) (A) (A) (A) (A) (A) (A) (A) (A)
                 (A) (A) (A) (A) (A) (A) (A) (A) (A) (A) (A) (A)
                 (A) (A) (A) (A) (A) (A) (A) (A) (A) (A) (A) (A)
                 (A) (A) (A) (A) (A) (A) (A) (A) (A) (A) (A) (A)
       Virtual   (A) (A) (A) (A) (A) (A) (A) (A) (A) (A) (A) (A)
                 (A) (A) (A) (A) (A) (A) (A) (A) (A) (A) (A) (A)
                 (A) (A) (A) (A) (A) (A) (A) (A) (A) (A) (A) (A)
                 (A) (A) (A) (A) (A) (A) (A) (A) (A) (A) (A) (A)
                 (A) (A) (A) (A) (A) (A) (A) (A) (A) (A) (A) (A)
                 (A) (A) (A) (A) (A) (A) (A) (A) (A) (A) (A) (A)
                 (A) (A) (A) (A) (A) (A) (A) (A) (A) (A) (A) (A)
                 (A) (A) (A) (A) (A) (A) (A) (A) (A) (A) (A) (A)
                 (A) (A) (A) (A) (A) (A) (A) (A) (A) (A) (A) (A)
                 (A) (A) (A) (A) (A) (A) (A) (A) (A) (A) (A) (A)
                 (A) (A) (A) (A) (A) (A) (A) (A) (A) (A) (A) (A)
                 (A) (A) (A) (A) (A) (A) (A) (A) (A) (A) (A) (A)
                 (A) (A) (A) (A) (A) (A) (A) (A) (A) (A) (A) (A)
                 (A) (A) (A) (A) (A) (A) (A) (A) (A) (A) (A) (A)
                 (A) (A) (A) (A) (A) (A) (A) (A) (A) (A) (A) (A)
                 (A) (A) (A) (A) (A) (A) (A) (A) (A) (A) (A) (A)
                 (A) (A) (A) (A) (A) (A) (A) (A) (A) (A) (A) (A)
                 (A) (A) (A) (A) (A) (A) (A) (A) (A) (A) (A) (A)
                 (A) (A) (A) (A) (A) (A) (A) (A) (A) (A) (A) (A)
                 (A) (A) (A) (A) (A) (A) (A) (A) (A) (A) (A) (A)
                 (A) (A) (A) (A) (A) (A) (A) (A) (A) (A) (A) (A)
                 (A) (A) (A) (A) (A) (A) (A) (A) (A) (A) (A) (A)
                 (A) (A) (A) (A) (A) (A) (A) (A) (A) (A) (A) (A)
                 (A) (A) (A) (A) (A) (A) (A) (A) (A) (A) (A) (A)
                 (A) (A) (A) (A) (A) (A) (A) (A) (A) (A) (A) (A)
                 (A) (A) (A) (A) (A) (A) (A) (A) (A) (A) (A) (A)
                 (A) (A) (A) (A) (A) (A) (A) (A) (A) (A) (A) (A)
                 (A) (A) (A) (A) (A) (A) (A) (A) (A) (A) (A) (A)
                 (A) (A) (A) (A) (A) (A) (A) (A) (A) (A) (A) (A)
                 (A) (A) (A) (A) (A) (A) (A) (A) (A) (A) (A) (A)
                 (A) (A) (A) (A) (A) (A) (A) (A) (A) (A) (A) (A)
                 (A) (A) (A) (A) (A) (A) (A) (A) (A) (A) (A) (A)
 The electronic state of the initial guess is 1-A.
 Requested convergence on RMS density matrix=1.00D-08 within 128 cycles.
 Requested convergence on MAX density matrix=1.00D-06.
 Requested convergence on             energy=1.00D-06.
 No special actions if energy rises.
 Integral accuracy reduced to 1.0D-05 until final iterations.
 Initial convergence to 1.0D-05 achieved.  Increase integral accuracy.
 SCF Done:  E(RHF) =  -1295.41801041     A.U. after   15 cycles
             Convg  =    0.4759D-08             -V/T =  2.0005

 **********************************************************************

            Population analysis using the SCF density.

 **********************************************************************

 Orbital symmetries:
       Occupied  (A) (A) (A) (A) (A) (A) (A) (A) (A) (A) (A) (A)
                 (A) (A) (A) (A) (A) (A) (A) (A) (A) (A) (A) (A)
                 (A) (A) (A) (A) (A) (A) (A) (A) (A) (A) (A) (A)
                 (A) (A) (A) (A) (A) (A) (A) (A) (A) (A) (A) (A)
                 (A) (A) (A) (A) (A) (A) (A) (A) (A) (A) (A) (A)
                 (A) (A) (A) (A) (A) (A) (A) (A) (A) (A) (A) (A)
                 (A) (A) (A) (A) (A) (A) (A) (A) (A) (A) (A) (A)
                 (A) (A) (A) (A) (A) (A) (A) (A) (A) (A) (A) (A)
                 (A) (A) (A) (A) (A) (A) (A) (A) (A) (A) (A) (A)
       Virtual   (A) (A) (A) (A) (A) (A) (A) (A) (A) (A) (A) (A)
                 (A) (A) (A) (A) (A) (A) (A) (A) (A) (A) (A) (A)
                 (A) (A) (A) (A) (A) (A) (A) (A) (A) (A) (A) (A)
                 (A) (A) (A) (A) (A) (A) (A) (A) (A) (A) (A) (A)
                 (A) (A) (A) (A) (A) (A) (A) (A) (A) (A) (A) (A)
                 (A) (A) (A) (A) (A) (A) (A) (A) (A) (A) (A) (A)
                 (A) (A) (A) (A) (A) (A) (A) (A) (A) (A) (A) (A)
                 (A) (A) (A) (A) (A) (A) (A) (A) (A) (A) (A) (A)
                 (A) (A) (A) (A) (A) (A) (A) (A) (A) (A) (A) (A)
                 (A) (A) (A) (A) (A) (A) (A) (A) (A) (A) (A) (A)
                 (A) (A) (A) (A) (A) (A) (A) (A) (A) (A) (A) (A)
                 (A) (A) (A) (A) (A) (A) (A) (A) (A) (A) (A) (A)
                 (A) (A) (A) (A) (A) (A) (A) (A) (A) (A) (A) (A)
                 (A) (A) (A) (A) (A) (A) (A) (A) (A) (A) (A) (A)
                 (A) (A) (A) (A) (A) (A) (A) (A) (A) (A) (A) (A)
                 (A) (A) (A) (A) (A) (A) (A) (A) (A) (A) (A) (A)
                 (A) (A) (A) (A) (A) (A) (A) (A) (A) (A) (A) (A)
                 (A) (A) (A) (A) (A) (A) (A) (A) (A) (A) (A) (A)
                 (A) (A) (A) (A) (A) (A) (A) (A) (A) (A) (A) (A)
                 (A) (A) (A) (A) (A) (A) (A) (A) (A) (A) (A) (A)
                 (A) (A) (A) (A) (A) (A) (A) (A) (A) (A) (A) (A)
                 (A) (A) (A) (A) (A) (A) (A) (A) (A) (A) (A) (A)
                 (A) (A) (A) (A) (A) (A) (A) (A) (A) (A) (A) (A)
                 (A) (A) (A) (A) (A) (A) (A) (A) (A) (A) (A) (A)
                 (A) (A) (A) (A) (A) (A) (A) (A) (A) (A) (A) (A)
                 (A) (A) (A) (A) (A) (A) (A) (A) (A) (A) (A) (A)
                 (A) (A) (A) (A) (A) (A) (A) (A) (A) (A) (A) (A)
                 (A) (A) (A) (A) (A) (A) (A) (A) (A) (A) (A) (A)
                 (A) (A) (A) (A) (A) (A) (A) (A) (A) (A) (A) (A)
                 (A) (A) (A) (A) (A) (A) (A) (A) (A) (A) (A) (A)
                 (A) (A) (A) (A) (A) (A) (A) (A) (A) (A) (A) (A)
                 (A) (A) (A) (A) (A) (A) (A) (A) (A) (A) (A) (A)
 The electronic state is 1-A.
 Alpha  occ. eigenvalues --  -20.52521 -20.52206 -20.49902 -20.49838 -15.58478
 Alpha  occ. eigenvalues --  -15.58066 -15.57683 -15.54829 -11.34730 -11.34283
 Alpha  occ. eigenvalues --  -11.33017 -11.32333 -11.29188 -11.28705 -11.25531
 Alpha  occ. eigenvalues --  -11.25315 -11.24493 -11.24411 -11.24185 -11.24071
 Alpha  occ. eigenvalues --  -11.23880 -11.23706 -11.23350 -11.22936 -11.22354
 Alpha  occ. eigenvalues --  -11.22317 -11.21938 -11.21552  -1.39910  -1.38636
 Alpha  occ. eigenvalues --   -1.38339  -1.36263  -1.26398  -1.24105  -1.23191
 Alpha  occ. eigenvalues --   -1.23062  -1.12423  -1.10095  -1.07993  -1.05791
 Alpha  occ. eigenvalues --   -1.01774  -0.99354  -0.98775  -0.97204  -0.95548
 Alpha  occ. eigenvalues --   -0.95335  -0.93827  -0.88812  -0.86798  -0.85156
 Alpha  occ. eigenvalues --   -0.83200  -0.80073  -0.79102  -0.77903  -0.77439
 Alpha  occ. eigenvalues --   -0.73074  -0.71936  -0.70527  -0.68614  -0.67611
 Alpha  occ. eigenvalues --   -0.66792  -0.65191  -0.64696  -0.64419  -0.63610
 Alpha  occ. eigenvalues --   -0.62906  -0.62086  -0.62061  -0.61930  -0.61531
 Alpha  occ. eigenvalues --   -0.61218  -0.59987  -0.59431  -0.59316  -0.59092
 Alpha  occ. eigenvalues --   -0.57685  -0.57139  -0.56975  -0.56750  -0.56372
 Alpha  occ. eigenvalues --   -0.55676  -0.55470  -0.55361  -0.55148  -0.54146
 Alpha  occ. eigenvalues --   -0.53734  -0.53454  -0.52886  -0.52336  -0.51022
 Alpha  occ. eigenvalues --   -0.50366  -0.50294  -0.50126  -0.49469  -0.48934
 Alpha  occ. eigenvalues --   -0.48151  -0.47268  -0.46109  -0.45617  -0.42288
 Alpha  occ. eigenvalues --   -0.42081  -0.41550  -0.39399  -0.38876  -0.38316
 Alpha  occ. eigenvalues --   -0.37891  -0.36148  -0.34775
 Alpha virt. eigenvalues --    0.15614   0.19096   0.19913   0.20813   0.21034
 Alpha virt. eigenvalues --    0.21256   0.21612   0.22570   0.23365   0.23408
 Alpha virt. eigenvalues --    0.25020   0.25225   0.25661   0.26763   0.26931
 Alpha virt. eigenvalues --    0.27307   0.27890   0.28712   0.28884   0.29854
 Alpha virt. eigenvalues --    0.30500   0.30730   0.30778   0.31193   0.31413
 Alpha virt. eigenvalues --    0.31720   0.31854   0.32997   0.33047   0.33523
 Alpha virt. eigenvalues --    0.33839   0.34018   0.34227   0.34795   0.34896
 Alpha virt. eigenvalues --    0.35402   0.35743   0.36032   0.36579   0.37215
 Alpha virt. eigenvalues --    0.37999   0.38831   0.38912   0.39411   0.40579
 Alpha virt. eigenvalues --    0.41646   0.41905   0.42133   0.43096   0.43838
 Alpha virt. eigenvalues --    0.44338   0.44885   0.45455   0.46198   0.47358
 Alpha virt. eigenvalues --    0.48489   0.49165   0.51281   0.51850   0.52506
 Alpha virt. eigenvalues --    0.53499   0.55842   0.57286   0.59211   0.61147
 Alpha virt. eigenvalues --    0.62324   0.64576   0.66773   0.68559   0.69422
 Alpha virt. eigenvalues --    0.70023   0.71119   0.71872   0.72124   0.72946
 Alpha virt. eigenvalues --    0.74510   0.75123   0.75314   0.76010   0.76426
 Alpha virt. eigenvalues --    0.76961   0.77451   0.77955   0.78134   0.79081
 Alpha virt. eigenvalues --    0.79294   0.80057   0.81735   0.82099   0.83369
 Alpha virt. eigenvalues --    0.83796   0.84534   0.84681   0.85286   0.86310
 Alpha virt. eigenvalues --    0.87442   0.88734   0.89866   0.90392   0.91256
 Alpha virt. eigenvalues --    0.91876   0.92196   0.92236   0.92774   0.94392
 Alpha virt. eigenvalues --    0.95399   0.96044   0.96655   0.97544   0.98031
 Alpha virt. eigenvalues --    0.98889   0.99078   0.99655   1.00112   1.00737
 Alpha virt. eigenvalues --    1.01615   1.02024   1.02578   1.03487   1.03540
 Alpha virt. eigenvalues --    1.04317   1.05020   1.06259   1.06537   1.06996
 Alpha virt. eigenvalues --    1.07688   1.09043   1.09385   1.10077   1.11627
 Alpha virt. eigenvalues --    1.11963   1.12750   1.12909   1.13763   1.13966
 Alpha virt. eigenvalues --    1.14286   1.14566   1.14703   1.15076   1.15696
 Alpha virt. eigenvalues --    1.15836   1.16188   1.16528   1.17040   1.17626
 Alpha virt. eigenvalues --    1.17990   1.18151   1.18414   1.18895   1.19207
 Alpha virt. eigenvalues --    1.19868   1.20580   1.20815   1.21358   1.21497
 Alpha virt. eigenvalues --    1.21875   1.22031   1.22594   1.22922   1.23117
 Alpha virt. eigenvalues --    1.23322   1.23726   1.24544   1.25399   1.25501
 Alpha virt. eigenvalues --    1.26798   1.27219   1.27490   1.28539   1.29246
 Alpha virt. eigenvalues --    1.29847   1.30391   1.30691   1.31968   1.33167
 Alpha virt. eigenvalues --    1.34813   1.35136   1.36270   1.38283   1.38321
 Alpha virt. eigenvalues --    1.39855   1.40700   1.41444   1.41668   1.43278
 Alpha virt. eigenvalues --    1.45298   1.46748   1.47579   1.48759   1.49326
 Alpha virt. eigenvalues --    1.52376   1.53885   1.55688   1.56956   1.58164
 Alpha virt. eigenvalues --    1.59127   1.59990   1.60867   1.61967   1.63001
 Alpha virt. eigenvalues --    1.64380   1.65949   1.68952   1.69276   1.71383
 Alpha virt. eigenvalues --    1.71987   1.73069   1.74669   1.74927   1.77346
 Alpha virt. eigenvalues --    1.77901   1.78246   1.79280   1.80069   1.81473
 Alpha virt. eigenvalues --    1.82093   1.85364   1.86724   1.88363   1.88971
 Alpha virt. eigenvalues --    1.90616   1.91379   1.92517   1.94889   1.95716
 Alpha virt. eigenvalues --    1.97927   1.99184   2.02272   2.03659   2.04327
 Alpha virt. eigenvalues --    2.04578   2.05691   2.07071   2.07904   2.08726
 Alpha virt. eigenvalues --    2.10480   2.10869   2.11704   2.12318   2.13634
 Alpha virt. eigenvalues --    2.13875   2.14637   2.15681   2.16368   2.17024
 Alpha virt. eigenvalues --    2.17311   2.17920   2.18931   2.18997   2.20829
 Alpha virt. eigenvalues --    2.21030   2.21895   2.23106   2.24313   2.25082
 Alpha virt. eigenvalues --    2.25228   2.25855   2.26058   2.26943   2.27277
 Alpha virt. eigenvalues --    2.28604   2.30232   2.30500   2.31352   2.32296
 Alpha virt. eigenvalues --    2.33573   2.35053   2.35395   2.36029   2.36418
 Alpha virt. eigenvalues --    2.36767   2.37595   2.38331   2.38804   2.38958
 Alpha virt. eigenvalues --    2.40227   2.41358   2.42175   2.43053   2.45031
 Alpha virt. eigenvalues --    2.46350   2.47952   2.48272   2.49559   2.50461
 Alpha virt. eigenvalues --    2.51992   2.52817   2.54542   2.55531   2.55808
 Alpha virt. eigenvalues --    2.56620   2.58008   2.59394   2.59504   2.60331
 Alpha virt. eigenvalues --    2.62596   2.62719   2.63731   2.64406   2.66099
 Alpha virt. eigenvalues --    2.67864   2.68326   2.69492   2.69880   2.72055
 Alpha virt. eigenvalues --    2.73069   2.73802   2.74495   2.75376   2.75734
 Alpha virt. eigenvalues --    2.77178   2.78169   2.78602   2.79233   2.80368
 Alpha virt. eigenvalues --    2.82232   2.82980   2.85304   2.85773   2.87293
 Alpha virt. eigenvalues --    2.89047   2.89651   2.90812   2.94689   2.95239
 Alpha virt. eigenvalues --    2.97528   2.97910   2.99804   3.01238   3.02521
 Alpha virt. eigenvalues --    3.03239   3.04908   3.05229   3.07285   3.09444
 Alpha virt. eigenvalues --    3.10284   3.10753   3.12800   3.14615   3.15157
 Alpha virt. eigenvalues --    3.18162   3.18518   3.24144   3.27838   3.30051
 Alpha virt. eigenvalues --    3.33849   3.38948   3.39989   3.40591   3.41814
 Alpha virt. eigenvalues --    3.42143   3.47685   3.55146   3.57056   3.59136
 Alpha virt. eigenvalues --    3.59909   4.37873   4.42866   4.48621   4.51388
 Alpha virt. eigenvalues --    4.52431   4.55452   4.59140   4.61298   4.62017
 Alpha virt. eigenvalues --    4.64289   4.66587   4.68916   4.69696   4.71426
 Alpha virt. eigenvalues --    4.73818   4.77256   4.78137   4.82770   4.86290
 Alpha virt. eigenvalues --    4.89417   4.92156   4.93534   4.95585   5.01543
 Alpha virt. eigenvalues --    5.06701   5.08649   5.22930   5.26336
          Condensed to atoms (all electrons):
 Mulliken atomic charges:
              1
     1  C   -0.286983
     2  N   -0.963183
     3  C    0.786552
     4  O   -0.557100
     5  C    0.130498
     6  C   -0.485553
     7  C   -0.395563
     8  C   -0.326063
     9  C   -0.551754
    10  C   -0.172384
    11  C   -0.175473
    12  C   -0.358099
    13  C   -0.311567
    14  C   -0.330256
    15  C    0.091207
    16  C   -0.509993
    17  N   -0.787357
    18  C    0.767198
    19  C   -0.595898
    20  O   -0.612810
    21  C    0.819769
    22  O   -0.639684
    23  N   -0.806526
    24  C   -0.275774
    25  N   -0.820301
    26  C    0.738143
    27  C   -0.586634
    28  O   -0.545777
    29  H    0.176200
    30  H    0.214180
    31  H    0.170290
    32  H    0.523370
    33  H    0.167901
    34  H    0.153875
    35  H    0.231897
    36  H    0.173971
    37  H    0.193491
    38  H    0.188571
    39  H    0.189359
    40  H    0.294986
    41  H    0.208351
    42  H    0.193851
    43  H    0.180623
    44  H    0.179167
    45  H    0.166047
    46  H    0.155218
    47  H    0.197355
    48  H    0.175542
    49  H    0.184129
    50  H    0.184769
    51  H    0.148973
    52  H    0.228277
    53  H    0.389246
    54  H    0.212607
    55  H    0.209292
    56  H    0.176679
    57  H    0.396539
    58  H    0.166633
    59  H    0.196823
    60  H    0.186917
    61  H    0.373546
    62  H    0.215758
    63  H    0.169791
    64  H    0.187137
 Sum of Mulliken atomic charges =   0.00000
 Mulliken charges with hydrogens summed into heavy atoms:
              1
     1  C    0.273687
     2  N   -0.439812
     3  C    0.786552
     4  O   -0.557100
     5  C    0.130498
     6  C    0.068120
     7  C   -0.028101
     8  C    0.051867
     9  C   -0.048416
    10  C    0.021467
    11  C    0.005151
    12  C   -0.012885
    13  C    0.041007
    14  C    0.029415
    15  C    0.091207
    16  C    0.052026
    17  N   -0.398111
    18  C    0.767198
    19  C    0.002680
    20  O   -0.612810
    21  C    0.819769
    22  O   -0.639684
    23  N   -0.409987
    24  C    0.274600
    25  N   -0.446754
    26  C    0.738143
    27  C   -0.013948
    28  O   -0.545777
 Sum of Mulliken charges with hydrogens summed into heavy atoms =   0.00000
 Electronic spatial extent (au):  <R**2>=          21742.5668
 Charge=              0.0000 electrons
 Dipole moment (field-independent basis, Debye):
    X=              1.7523    Y=             -6.4467    Z=              2.4135  Tot=              7.1032
 Quadrupole moment (field-independent basis, Debye-Ang):
   XX=           -227.1096   YY=           -162.1375   ZZ=           -167.5799
   XY=             26.3061   XZ=              0.1421   YZ=              5.4655
 Traceless Quadrupole moment (field-independent basis, Debye-Ang):
   XX=            -41.5006   YY=             23.4715   ZZ=             18.0291
   XY=             26.3061   XZ=              0.1421   YZ=              5.4655
 Octapole moment (field-independent basis, Debye-Ang**2):
  XXX=            -40.9465  YYY=             32.2101  ZZZ=              8.2854  XYY=             88.3680
  XXY=           -316.8036  XXZ=             58.3847  XZZ=            -14.2035  YZZ=              5.2127
  YYZ=             -0.5888  XYZ=             38.3226
 Hexadecapole moment (field-independent basis, Debye-Ang**3):
 XXXX=         -28227.2277 YYYY=          -2189.1108 ZZZZ=          -1186.9279 XXXY=            888.9678
 XXXZ=           -652.2417 YYYX=            178.3241 YYYZ=              2.7331 ZZZX=             -5.6625
 ZZZY=             10.4469 XXYY=          -4439.2131 XXZZ=          -4166.6257 YYZZ=           -568.2749
 XXYZ=            148.6927 YYXZ=            -18.9854 ZZXY=            -14.8683
 N-N= 2.713548384748D+03 E-N=-8.459118716408D+03  KE= 1.294789281141D+03
 1\1\GINC-MOSURA\SP\RHF\6-31G(d)\C20H36N4O4\MARIE\05-Dec-2019\0\\#SP HF
 /6-31G* Geom=(ModRedundant)\\paramfit run\\0,1\C,0,0.,0.,0.\N,0,1.4481
 87,0.,0.\C,0,2.1232,0.47592,1.072365\O,0,1.590179,0.696732,2.124447\C,
 0,3.650505,0.594143,0.921539\C,0,4.327081,-0.602706,1.598029\C,0,4.033
 336,0.689073,-0.58047\C,0,3.665488,-0.473524,-1.519986\C,0,2.23229,-0.
 508925,-2.086843\C,0,1.840661,0.736884,-2.84636\C,0,1.851111,0.918822,
 -4.156912\C,0,2.258532,-0.074525,-5.218526\C,0,1.078767,-0.738302,-5.9
 51411\C,0,0.198624,0.274502,-6.696052\C,0,-0.919546,-0.273354,-7.62027
 8\C,0,-1.684456,0.932613,-8.189493\N,0,-0.299036,-1.012955,-8.710915\C
 ,0,-1.044722,-1.729807,-9.601495\C,0,-0.266784,-2.731852,-10.423399\O,
 0,-2.22835,-1.581138,-9.728237\C,0,-1.793848,-1.253957,-6.806189\O,0,-
 1.454262,-2.398502,-6.669705\N,0,-2.879627,-0.748441,-6.182074\C,0,-3.
 769832,-1.621421,-5.444753\N,0,4.127563,1.855185,1.507731\C,0,3.963702
 ,2.18968,2.819574\C,0,4.821145,3.341579,3.301281\O,0,3.18999,1.62422,3
 .539132\H,0,-0.403259,1.006147,0.\H,0,-0.36496,-0.516002,0.875939\H,0,
 -0.345658,-0.522086,-0.883346\H,0,1.904244,0.070913,-0.879357\H,0,3.96
 8896,-1.535869,1.190789\H,0,5.401266,-0.540824,1.45128\H,0,4.116092,-0
 .604917,2.657465\H,0,5.116522,0.786581,-0.601044\H,0,3.636861,1.617791
 ,-0.978679\H,0,4.34787,-0.415091,-2.362932\H,0,3.868339,-1.422018,-1.0
 33586\H,0,1.521124,-0.674604,-1.287996\H,0,2.164797,-1.377573,-2.73238
 8\H,0,1.513271,1.562579,-2.235495\H,0,1.530723,1.881455,-4.523587\H,0,
 2.872232,-0.855764,-4.786666\H,0,2.886587,0.436178,-5.947445\H,0,1.488
 126,-1.47339,-6.638756\H,0,0.483564,-1.295166,-5.239746\H,0,0.826425,0
 .912431,-7.314475\H,0,-0.277923,0.920251,-5.967861\H,0,-1.014292,1.500
 168,-8.824585\H,0,-2.020094,1.594443,-7.397843\H,0,-2.530898,0.623424,
 -8.784201\H,0,0.592223,-1.403405,-8.506176\H,0,-0.825833,-2.966307,-11
 .316459\H,0,-0.146632,-3.639386,-9.839387\H,0,0.717609,-2.363672,-10.6
 91347\H,0,-3.252857,0.112488,-6.505816\H,0,-4.498473,-1.012969,-4.9253
 4\H,0,-3.205578,-2.190527,-4.720625\H,0,-4.286357,-2.315897,-6.099473\
 H,0,4.886366,2.290044,1.03164\H,0,4.363893,3.773851,4.179367\H,0,4.947
 743,4.104838,2.541703\H,0,5.802696,2.966017,3.57204\\Version=EM64L-G09
 RevA.02\State=1-A\HF=-1295.4180104\RMSD=4.759e-09\Dipole=1.8056078,0.9
 804609,-1.8943039\Quadrupole=24.6436336,11.3694268,-36.0130604,-2.8338
 515,-6.240597,-7.3078829\PG=C01 [X(C20H36N4O4)]\\@


 FROM AN ANONYMOUS WRITER, ON PERSPECTIVE:

 MAN, DESPITE HIS ARTISTIC PRETENSIONS, HIS SOPHISTICATION AND MANY 
 ACCOMPLISHMENTS, OWES THE FACT OF HIS EXISTENCE TO A SIX-INCH LAYER OF 
 TOPSOIL AND THE FACT THAT IT RAINS.
 Job cpu time:  0 days  0 hours  5 minutes 52.8 seconds.
 File lengths (MBytes):  RWF=    132 Int=      0 D2E=      0 Chk=     10 Scr=      1
 Normal termination of Gaussian 09 at Thu Dec  5 16:45:14 2019.
