 Entering Gaussian System, Link 0=g09
 Input=PSI_-40.gau
 Output=PSI_-40.log
 Initial command:
 /home/marie/Utilities//g09/l1.exe /tmp/g09/Gau-2979.inp -scrdir=/tmp/g09/
 Entering Link 1 = /home/marie/Utilities//g09/l1.exe PID=      2981.
  
 Copyright (c) 1988,1990,1992,1993,1995,1998,2003,2009, Gaussian, Inc.
                  All Rights Reserved.
  
 This is part of the Gaussian(R) 09 program.  It is based on
 the Gaussian(R) 03 system (copyright 2003, Gaussian, Inc.),
 the Gaussian(R) 98 system (copyright 1998, Gaussian, Inc.),
 the Gaussian(R) 94 system (copyright 1995, Gaussian, Inc.),
 the Gaussian 92(TM) system (copyright 1992, Gaussian, Inc.),
 the Gaussian 90(TM) system (copyright 1990, Gaussian, Inc.),
 the Gaussian 88(TM) system (copyright 1988, Gaussian, Inc.),
 the Gaussian 86(TM) system (copyright 1986, Carnegie Mellon
 University), and the Gaussian 82(TM) system (copyright 1983,
 Carnegie Mellon University). Gaussian is a federally registered
 trademark of Gaussian, Inc.
  
 This software contains proprietary and confidential information,
 including trade secrets, belonging to Gaussian, Inc.
  
 This software is provided under written license and may be
 used, copied, transmitted, or stored only in accord with that
 written license.
  
 The following legend is applicable only to US Government
 contracts under FAR:
  
                    RESTRICTED RIGHTS LEGEND
  
 Use, reproduction and disclosure by the US Government is
 subject to restrictions as set forth in subparagraphs (a)
 and (c) of the Commercial Computer Software - Restricted
 Rights clause in FAR 52.227-19.
  
 Gaussian, Inc.
 340 Quinnipiac St., Bldg. 40, Wallingford CT 06492
  
  
 ---------------------------------------------------------------
 Warning -- This program may not be used in any manner that
 competes with the business of Gaussian, Inc. or will provide
 assistance to any competitor of Gaussian, Inc.  The licensee
 of this program is prohibited from giving any competitor of
 Gaussian, Inc. access to this program.  By using this program,
 the user acknowledges that Gaussian, Inc. is engaged in the
 business of creating and licensing software in the field of
 computational chemistry and represents and warrants to the
 licensee that it is not a competitor of Gaussian, Inc. and that
 it will not use this program in any manner prohibited above.
 ---------------------------------------------------------------
  

 Cite this work as:
 Gaussian 09, Revision A.02,
 M. J. Frisch, G. W. Trucks, H. B. Schlegel, G. E. Scuseria, 
 M. A. Robb, J. R. Cheeseman, G. Scalmani, V. Barone, B. Mennucci, 
 G. A. Petersson, H. Nakatsuji, M. Caricato, X. Li, H. P. Hratchian, 
 A. F. Izmaylov, J. Bloino, G. Zheng, J. L. Sonnenberg, M. Hada, 
 M. Ehara, K. Toyota, R. Fukuda, J. Hasegawa, M. Ishida, T. Nakajima, 
 Y. Honda, O. Kitao, H. Nakai, T. Vreven, J. A. Montgomery, Jr., 
 J. E. Peralta, F. Ogliaro, M. Bearpark, J. J. Heyd, E. Brothers, 
 K. N. Kudin, V. N. Staroverov, R. Kobayashi, J. Normand, 
 K. Raghavachari, A. Rendell, J. C. Burant, S. S. Iyengar, J. Tomasi, 
 M. Cossi, N. Rega, J. M. Millam, M. Klene, J. E. Knox, J. B. Cross, 
 V. Bakken, C. Adamo, J. Jaramillo, R. Gomperts, R. E. Stratmann, 
 O. Yazyev, A. J. Austin, R. Cammi, C. Pomelli, J. W. Ochterski, 
 R. L. Martin, K. Morokuma, V. G. Zakrzewski, G. A. Voth, 
 P. Salvador, J. J. Dannenberg, S. Dapprich, A. D. Daniels, 
 O. Farkas, J. B. Foresman, J. V. Ortiz, J. Cioslowski, 
 and D. J. Fox, Gaussian, Inc., Wallingford CT, 2009.
 
 ******************************************
 Gaussian 09:  EM64L-G09RevA.02 11-Jun-2009
                 5-Dec-2019 
 ******************************************
 %chk=PSI_-40
 %NoSave
 ---------------------------------
 #SP HF/6-31G* Geom=(ModRedundant)
 ---------------------------------
 1/18=120,38=1/1;
 2/12=2,17=6,18=5,40=1/2;
 3/5=1,6=6,7=1,11=9,16=1,25=1,30=1/1,2,3;
 4//1;
 5/5=2,38=5/2;
 6/7=2,8=2,9=2,10=2,28=1/1;
 99/5=1,9=1/99;
 ------------
 paramfit run
 ------------
 Symbolic Z-matrix:
 Charge =  0 Multiplicity = 1
 C-CT--0.3208          0.        0.        0. 
 N-N--0.5622           1.44819   0.        0. 
 C-C-0.8053            2.1232    0.47592   1.07237 
 O-O--0.6151           1.59018   0.69673   2.12445 
 C-CX-0.0839           3.65051   0.59414   0.92154 
 C-CU--0.3230          4.18678  -0.62329   0.16121 
 C-CU--0.0657          4.01515   1.9203    0.20047 
 C-CU--0.0109          3.49038   2.16362  -1.22608 
 C-CU-0.0816           2.05379   2.70205  -1.37752 
 C-CM--0.2354          1.80478   4.00244  -0.65002 
 C-CM--0.2653          1.81406   5.22453  -1.15714 
 C-CU-0.1214           2.07717   5.6221   -2.58978 
 C-CU--0.0354          0.81181   5.97593  -3.39179 
 C-CU--0.0984          0.04969   7.16913  -2.79988 
 C-CU-0.1300          -1.14372   7.74352  -3.60641 
 C-CU--0.3561         -1.76461   8.87709  -2.77395 
 N-N--0.7186          -0.63849   8.28381  -4.86114 
 C-C-0.8537           -1.48249   8.72675  -5.83815 
 C-CT--0.3868         -0.8485    8.89574  -7.19988 
 O-O--0.6323          -2.64093   8.96624  -5.63867 
 C-C-0.7903           -2.11725   6.58861  -3.93373 
 O-O--0.6136          -1.91859   5.87929  -4.88311 
 N-N--0.5650          -3.12128   6.35498  -3.06119 
 C-CT--0.3231         -4.09873   5.32119  -3.33336 
 N-N--0.7191           4.28942   0.70017   2.24138 
 C-C-0.8539            4.19144  -0.25613   3.20863 
 C-CT--0.3903          5.1925   -0.13261   4.33856 
 O-O--0.6290           3.36708  -1.12536   3.17717 
 H-H1-0.1459          -0.40326   1.00615   0. 
 H-H1-0.1459          -0.36496  -0.516     0.87594 
 H-H1-0.1459          -0.34566  -0.52209  -0.88335 
 H-H-0.3572            1.90424   0.07091  -0.87936 
 H-HC-0.0997           3.70934  -0.72441  -0.80148 
 H-HC-0.0997           5.25762  -0.51574   0.0164 
 H-HC-0.0997           3.99613  -1.52888   0.71841 
 H-HC-0.0347           5.10156   1.93645   0.1488 
 H-HC-0.0347           3.72882   2.74961   0.83964 
 H-HC-0.0243           4.15957   2.88861  -1.68017 
 H-HC-0.0243           3.58374   1.2573   -1.81536 
 H-HC-0.0171           1.34206   1.96253  -1.03413 
 H-HC-0.0171           1.86845   2.82546  -2.43877 
 H-HA-0.1313           1.59239   3.90582   0.40244 
 H-HA-0.1359           1.60795   6.04012  -0.48179 
 H-HC-0.0092           2.59779   4.82777  -3.1108 
 H-HC-0.0092           2.75011   6.47869  -2.59312 
 H-HC-0.0318           1.1153    6.1803   -4.41478 
 H-HC-0.0318           0.16549   5.10949  -3.44043 
 H-HC-0.0435           0.74      7.99436  -2.63858 
 H-HC-0.0435          -0.33072   6.88773  -1.82498 
 H-HC-0.1066          -1.04122   9.67932  -2.68614 
 H-HC-0.1066          -2.00209   8.54241  -1.76947 
 H-HC-0.1066          -2.65316   9.27442  -3.24123 
 H-H-0.3529            0.20152   7.86906  -5.19444 
 H-HC-0.1047          -1.44804   9.57472  -7.78692 
 H-HC-0.1047          -0.83042   7.92965  -7.69532 
 H-HC-0.1047           0.16874   9.26614  -7.13348 
 H-H-0.3615           -3.39156   7.08484  -2.4451 
 H-H1-0.1469          -4.73761   5.213    -2.46673 
 H-H1-0.1469          -3.59586   4.38362  -3.51967 
 H-H1-0.1469          -4.70837   5.56111  -4.19854 
 H-H-0.3570            5.08729   1.29429   2.28572 
 H-HC-0.1060           4.80767  -0.65165   5.20428 
 H-HC-0.1060           5.39837   0.90091   4.59354 
 H-HC-0.1060           6.12512  -0.60107   4.04094 
 
 The following ModRedundant input section has been read:
 D    *    3    5    * F                                                       
 Stoichiometry    C20H36N4O4
 Framework group  C1[X(C20H36N4O4)]
 Deg. of freedom   186
 Full point group                 C1      NOp   1
 Largest Abelian subgroup         C1      NOp   1
 Largest concise Abelian subgroup C1      NOp   1
                         Standard orientation:                         
 ---------------------------------------------------------------------
 Center     Atomic      Atomic             Coordinates (Angstroms)
 Number     Number       Type             X           Y           Z
 ---------------------------------------------------------------------
      1          6    20001001       -3.088430    2.865091   -0.933687
      2          7    20001014       -3.753113    1.599626   -1.166155
      3          6    20001002       -4.358743    0.956824   -0.140423
      4          8    20001024       -4.570786    1.484049    0.916373
      5          6    90000001       -4.892891   -0.455654   -0.438712
      6          6    90000002       -5.524516   -0.481196   -1.834506
      7          6    90000002       -3.747875   -1.497281   -0.313993
      8          6    90000002       -2.520683   -1.372154   -1.234848
      9          6    90000002       -1.409893   -0.388437   -0.816419
     10          6    20001004       -0.835094   -0.657243    0.554577
     11          6    20001004        0.279389   -1.307190    0.848262
     12          6    90000002        1.252807   -1.942569   -0.115328
     13          6    90000002        2.534903   -1.124335   -0.352581
     14          6    90000002        3.350812   -0.916410    0.930375
     15          6    90000002        4.751670   -0.263383    0.804682
     16          6    90000002        5.323854   -0.114071    2.223753
     17          7    20001014        5.608009   -1.148496    0.027000
     18          6    20001002        6.857781   -0.766674   -0.367129
     19          6    20001001        7.465522   -1.609791   -1.464677
     20          8    20001024        7.436567    0.166185    0.116527
     21          6    20001002        4.605862    1.068747    0.034686
     22          8    20001024        4.581784    1.074741   -1.166695
     23          7    20001014        4.406045    2.189119    0.761886
     24          6    20001001        4.312197    3.477414    0.106379
     25          7    20001014       -5.874707   -0.858062    0.578900
     26          6    20001002       -7.033755   -0.181712    0.821458
     27          6    20001001       -8.060555   -0.938097    1.638577
     28          8    20001024       -7.225222    0.934327    0.429109
     29          1    20001035       -2.222786    2.753810   -0.290859
     30          1    20001035       -3.774523    3.557677   -0.468581
     31          1    20001035       -2.774075    3.270691   -1.887114
     32          1    20001029       -3.407919    1.032016   -1.904359
     33          1    20001034       -4.819231   -0.166741   -2.588578
     34          1    20001034       -5.859845   -1.488954   -2.060819
     35          1    20001034       -6.370524    0.189167   -1.877031
     36          1    20001034       -4.205823   -2.462077   -0.520573
     37          1    20001034       -3.423699   -1.530083    0.721436
     38          1    20001034       -2.075867   -2.361447   -1.290151
     39          1    20001034       -2.837115   -1.127497   -2.243505
     40          1    20001034       -1.781249    0.627550   -0.851483
     41          1    20001034       -0.630029   -0.447989   -1.567484
     42          1    20001033       -1.409227   -0.263857    1.377822
     43          1    20001033        0.536626   -1.398170    1.891964
     44          1    20001034        0.776700   -2.112274   -1.073445
     45          1    20001034        1.525269   -2.925855    0.266129
     46          1    20001034        3.123121   -1.642411   -1.104891
     47          1    20001034        2.273502   -0.167827   -0.785696
     48          1    20001034        3.499240   -1.874877    1.423168
     49          1    20001034        2.773483   -0.303074    1.612180
     50          1    20001034        5.483885   -1.102255    2.639040
     51          1    20001034        4.627859    0.403504    2.875740
     52          1    20001034        6.269604    0.406774    2.219656
     53          1    20001029        5.133923   -1.743096   -0.613630
     54          1    20001034        8.538111   -1.489860   -1.449459
     55          1    20001034        7.089152   -1.257253   -2.420285
     56          1    20001034        7.210927   -2.659072   -1.361859
     57          1    20001029        4.668877    2.184529    1.719074
     58          1    20001035        4.033030    4.219984    0.842298
     59          1    20001035        3.554540    3.441149   -0.662559
     60          1    20001035        5.252668    3.765352   -0.352272
     61          1    20001029       -5.864589   -1.822170    0.827775
     62          1    20001034       -8.733696   -0.228327    2.096924
     63          1    20001034       -7.602852   -1.554707    2.403986
     64          1    20001034       -8.634022   -1.583332    0.980848
 ---------------------------------------------------------------------
 Rotational constants (GHZ):      0.4145710      0.0494126      0.0474969
 Standard basis: 6-31G(d) (6D, 7F)
 There are   492 symmetry adapted basis functions of A   symmetry.
 Integral buffers will be    131072 words long.
 Raffenetti 1 integral format.
 Two-electron integral symmetry is turned on.
   492 basis functions,   928 primitive gaussians,   492 cartesian basis functions
   108 alpha electrons      108 beta electrons
       nuclear repulsion energy      2688.0175378888 Hartrees.
 NAtoms=   64 NActive=   64 NUniq=   64 SFac= 7.50D-01 NAtFMM=   80 NAOKFM=F Big=T
 One-electron integrals computed using PRISM.
 NBasis=   492 RedAO= T  NBF=   492
 NBsUse=   492 1.00D-06 NBFU=   492
 Harris functional with IExCor=  205 diagonalized for initial guess.
 ExpMin= 1.61D-01 ExpMax= 5.48D+03 ExpMxC= 8.25D+02 IAcc=1 IRadAn=         1 AccDes= 0.00D+00
 HarFok:  IExCor=  205 AccDes= 0.00D+00 IRadAn=         1 IDoV= 1
 ScaDFX=  1.000000  1.000000  1.000000  1.000000
 FoFCou: FMM=F IPFlag=           0 FMFlag=      100000 FMFlg1=           1
         NFxFlg=           0 DoJE=T BraDBF=F KetDBF=T FulRan=T
         Omega=  0.000000  0.000000  1.000000  0.000000  0.000000 ICntrl=     500 IOpCl=  0
         NMat0=    1 NMatS0=    1 NMatT0=    0 NMatD0=    1 NMtDS0=    0 NMtDT0=    0
         I1Cent=           4 NGrid=           0.
 Petite list used in FoFCou.
 Initial guess orbital symmetries:
       Occupied  (A) (A) (A) (A) (A) (A) (A) (A) (A) (A) (A) (A)
                 (A) (A) (A) (A) (A) (A) (A) (A) (A) (A) (A) (A)
                 (A) (A) (A) (A) (A) (A) (A) (A) (A) (A) (A) (A)
                 (A) (A) (A) (A) (A) (A) (A) (A) (A) (A) (A) (A)
                 (A) (A) (A) (A) (A) (A) (A) (A) (A) (A) (A) (A)
                 (A) (A) (A) (A) (A) (A) (A) (A) (A) (A) (A) (A)
                 (A) (A) (A) (A) (A) (A) (A) (A) (A) (A) (A) (A)
                 (A) (A) (A) (A) (A) (A) (A) (A) (A) (A) (A) (A)
                 (A) (A) (A) (A) (A) (A) (A) (A) (A) (A) (A) (A)
       Virtual   (A) (A) (A) (A) (A) (A) (A) (A) (A) (A) (A) (A)
                 (A) (A) (A) (A) (A) (A) (A) (A) (A) (A) (A) (A)
                 (A) (A) (A) (A) (A) (A) (A) (A) (A) (A) (A) (A)
                 (A) (A) (A) (A) (A) (A) (A) (A) (A) (A) (A) (A)
                 (A) (A) (A) (A) (A) (A) (A) (A) (A) (A) (A) (A)
                 (A) (A) (A) (A) (A) (A) (A) (A) (A) (A) (A) (A)
                 (A) (A) (A) (A) (A) (A) (A) (A) (A) (A) (A) (A)
                 (A) (A) (A) (A) (A) (A) (A) (A) (A) (A) (A) (A)
                 (A) (A) (A) (A) (A) (A) (A) (A) (A) (A) (A) (A)
                 (A) (A) (A) (A) (A) (A) (A) (A) (A) (A) (A) (A)
                 (A) (A) (A) (A) (A) (A) (A) (A) (A) (A) (A) (A)
                 (A) (A) (A) (A) (A) (A) (A) (A) (A) (A) (A) (A)
                 (A) (A) (A) (A) (A) (A) (A) (A) (A) (A) (A) (A)
                 (A) (A) (A) (A) (A) (A) (A) (A) (A) (A) (A) (A)
                 (A) (A) (A) (A) (A) (A) (A) (A) (A) (A) (A) (A)
                 (A) (A) (A) (A) (A) (A) (A) (A) (A) (A) (A) (A)
                 (A) (A) (A) (A) (A) (A) (A) (A) (A) (A) (A) (A)
                 (A) (A) (A) (A) (A) (A) (A) (A) (A) (A) (A) (A)
                 (A) (A) (A) (A) (A) (A) (A) (A) (A) (A) (A) (A)
                 (A) (A) (A) (A) (A) (A) (A) (A) (A) (A) (A) (A)
                 (A) (A) (A) (A) (A) (A) (A) (A) (A) (A) (A) (A)
                 (A) (A) (A) (A) (A) (A) (A) (A) (A) (A) (A) (A)
                 (A) (A) (A) (A) (A) (A) (A) (A) (A) (A) (A) (A)
                 (A) (A) (A) (A) (A) (A) (A) (A) (A) (A) (A) (A)
                 (A) (A) (A) (A) (A) (A) (A) (A) (A) (A) (A) (A)
                 (A) (A) (A) (A) (A) (A) (A) (A) (A) (A) (A) (A)
                 (A) (A) (A) (A) (A) (A) (A) (A) (A) (A) (A) (A)
                 (A) (A) (A) (A) (A) (A) (A) (A) (A) (A) (A) (A)
                 (A) (A) (A) (A) (A) (A) (A) (A) (A) (A) (A) (A)
                 (A) (A) (A) (A) (A) (A) (A) (A) (A) (A) (A) (A)
                 (A) (A) (A) (A) (A) (A) (A) (A) (A) (A) (A) (A)
                 (A) (A) (A) (A) (A) (A) (A) (A) (A) (A) (A) (A)
 The electronic state of the initial guess is 1-A.
 Requested convergence on RMS density matrix=1.00D-08 within 128 cycles.
 Requested convergence on MAX density matrix=1.00D-06.
 Requested convergence on             energy=1.00D-06.
 No special actions if energy rises.
 Integral accuracy reduced to 1.0D-05 until final iterations.
 Initial convergence to 1.0D-05 achieved.  Increase integral accuracy.
 SCF Done:  E(RHF) =  -1295.59825737     A.U. after   14 cycles
             Convg  =    0.5202D-08             -V/T =  2.0012

 **********************************************************************

            Population analysis using the SCF density.

 **********************************************************************

 Orbital symmetries:
       Occupied  (A) (A) (A) (A) (A) (A) (A) (A) (A) (A) (A) (A)
                 (A) (A) (A) (A) (A) (A) (A) (A) (A) (A) (A) (A)
                 (A) (A) (A) (A) (A) (A) (A) (A) (A) (A) (A) (A)
                 (A) (A) (A) (A) (A) (A) (A) (A) (A) (A) (A) (A)
                 (A) (A) (A) (A) (A) (A) (A) (A) (A) (A) (A) (A)
                 (A) (A) (A) (A) (A) (A) (A) (A) (A) (A) (A) (A)
                 (A) (A) (A) (A) (A) (A) (A) (A) (A) (A) (A) (A)
                 (A) (A) (A) (A) (A) (A) (A) (A) (A) (A) (A) (A)
                 (A) (A) (A) (A) (A) (A) (A) (A) (A) (A) (A) (A)
       Virtual   (A) (A) (A) (A) (A) (A) (A) (A) (A) (A) (A) (A)
                 (A) (A) (A) (A) (A) (A) (A) (A) (A) (A) (A) (A)
                 (A) (A) (A) (A) (A) (A) (A) (A) (A) (A) (A) (A)
                 (A) (A) (A) (A) (A) (A) (A) (A) (A) (A) (A) (A)
                 (A) (A) (A) (A) (A) (A) (A) (A) (A) (A) (A) (A)
                 (A) (A) (A) (A) (A) (A) (A) (A) (A) (A) (A) (A)
                 (A) (A) (A) (A) (A) (A) (A) (A) (A) (A) (A) (A)
                 (A) (A) (A) (A) (A) (A) (A) (A) (A) (A) (A) (A)
                 (A) (A) (A) (A) (A) (A) (A) (A) (A) (A) (A) (A)
                 (A) (A) (A) (A) (A) (A) (A) (A) (A) (A) (A) (A)
                 (A) (A) (A) (A) (A) (A) (A) (A) (A) (A) (A) (A)
                 (A) (A) (A) (A) (A) (A) (A) (A) (A) (A) (A) (A)
                 (A) (A) (A) (A) (A) (A) (A) (A) (A) (A) (A) (A)
                 (A) (A) (A) (A) (A) (A) (A) (A) (A) (A) (A) (A)
                 (A) (A) (A) (A) (A) (A) (A) (A) (A) (A) (A) (A)
                 (A) (A) (A) (A) (A) (A) (A) (A) (A) (A) (A) (A)
                 (A) (A) (A) (A) (A) (A) (A) (A) (A) (A) (A) (A)
                 (A) (A) (A) (A) (A) (A) (A) (A) (A) (A) (A) (A)
                 (A) (A) (A) (A) (A) (A) (A) (A) (A) (A) (A) (A)
                 (A) (A) (A) (A) (A) (A) (A) (A) (A) (A) (A) (A)
                 (A) (A) (A) (A) (A) (A) (A) (A) (A) (A) (A) (A)
                 (A) (A) (A) (A) (A) (A) (A) (A) (A) (A) (A) (A)
                 (A) (A) (A) (A) (A) (A) (A) (A) (A) (A) (A) (A)
                 (A) (A) (A) (A) (A) (A) (A) (A) (A) (A) (A) (A)
                 (A) (A) (A) (A) (A) (A) (A) (A) (A) (A) (A) (A)
                 (A) (A) (A) (A) (A) (A) (A) (A) (A) (A) (A) (A)
                 (A) (A) (A) (A) (A) (A) (A) (A) (A) (A) (A) (A)
                 (A) (A) (A) (A) (A) (A) (A) (A) (A) (A) (A) (A)
                 (A) (A) (A) (A) (A) (A) (A) (A) (A) (A) (A) (A)
                 (A) (A) (A) (A) (A) (A) (A) (A) (A) (A) (A) (A)
                 (A) (A) (A) (A) (A) (A) (A) (A) (A) (A) (A) (A)
                 (A) (A) (A) (A) (A) (A) (A) (A) (A) (A) (A) (A)
 The electronic state is 1-A.
 Alpha  occ. eigenvalues --  -20.52324 -20.51964 -20.51242 -20.51125 -15.58231
 Alpha  occ. eigenvalues --  -15.57885 -15.57832 -15.57785 -11.34534 -11.34036
 Alpha  occ. eigenvalues --  -11.33764 -11.33430 -11.28997 -11.28901 -11.25326
 Alpha  occ. eigenvalues --  -11.25308 -11.24305 -11.24132 -11.23805 -11.23212
 Alpha  occ. eigenvalues --  -11.23154 -11.23036 -11.22927 -11.22845 -11.22783
 Alpha  occ. eigenvalues --  -11.22655 -11.22147 -11.22048  -1.39689  -1.38858
 Alpha  occ. eigenvalues --   -1.38417  -1.37333  -1.23863  -1.23491  -1.22947
 Alpha  occ. eigenvalues --   -1.22902  -1.11565  -1.09703  -1.07559  -1.04781
 Alpha  occ. eigenvalues --   -1.01336  -0.99151  -0.98849  -0.96053  -0.95092
 Alpha  occ. eigenvalues --   -0.94830  -0.92974  -0.88081  -0.86158  -0.83189
 Alpha  occ. eigenvalues --   -0.81573  -0.79804  -0.78455  -0.77343  -0.77198
 Alpha  occ. eigenvalues --   -0.72566  -0.71665  -0.70504  -0.68496  -0.67821
 Alpha  occ. eigenvalues --   -0.67390  -0.65328  -0.64836  -0.64138  -0.63159
 Alpha  occ. eigenvalues --   -0.62611  -0.62367  -0.62079  -0.61756  -0.61399
 Alpha  occ. eigenvalues --   -0.61203  -0.60116  -0.59455  -0.58990  -0.58475
 Alpha  occ. eigenvalues --   -0.57812  -0.57430  -0.56791  -0.56659  -0.56378
 Alpha  occ. eigenvalues --   -0.55618  -0.55191  -0.55092  -0.55006  -0.54674
 Alpha  occ. eigenvalues --   -0.53872  -0.53427  -0.52877  -0.52529  -0.51999
 Alpha  occ. eigenvalues --   -0.50945  -0.50154  -0.49955  -0.49642  -0.49051
 Alpha  occ. eigenvalues --   -0.48923  -0.47287  -0.46871  -0.45359  -0.41848
 Alpha  occ. eigenvalues --   -0.41348  -0.41075  -0.40151  -0.39163  -0.38632
 Alpha  occ. eigenvalues --   -0.38604  -0.37682  -0.35305
 Alpha virt. eigenvalues --    0.16449   0.19332   0.19814   0.20425   0.21263
 Alpha virt. eigenvalues --    0.21326   0.21624   0.22243   0.22822   0.23862
 Alpha virt. eigenvalues --    0.23999   0.25093   0.25797   0.26681   0.27193
 Alpha virt. eigenvalues --    0.27447   0.28145   0.28513   0.29210   0.29549
 Alpha virt. eigenvalues --    0.30344   0.30882   0.30937   0.31243   0.31638
 Alpha virt. eigenvalues --    0.32086   0.32299   0.32513   0.33243   0.33307
 Alpha virt. eigenvalues --    0.33680   0.33986   0.34166   0.34563   0.35093
 Alpha virt. eigenvalues --    0.35461   0.35637   0.36250   0.36697   0.37402
 Alpha virt. eigenvalues --    0.37850   0.38868   0.39095   0.39322   0.39573
 Alpha virt. eigenvalues --    0.41120   0.41506   0.42151   0.42716   0.43943
 Alpha virt. eigenvalues --    0.44524   0.44732   0.45018   0.45973   0.46700
 Alpha virt. eigenvalues --    0.47219   0.48831   0.49644   0.51870   0.52057
 Alpha virt. eigenvalues --    0.53617   0.57407   0.58641   0.59310   0.60187
 Alpha virt. eigenvalues --    0.61906   0.63526   0.64311   0.68046   0.69768
 Alpha virt. eigenvalues --    0.70684   0.71157   0.71229   0.72111   0.72579
 Alpha virt. eigenvalues --    0.73535   0.75217   0.75658   0.76157   0.76571
 Alpha virt. eigenvalues --    0.77065   0.77447   0.77907   0.78484   0.78698
 Alpha virt. eigenvalues --    0.79188   0.79840   0.80661   0.82409   0.83504
 Alpha virt. eigenvalues --    0.83757   0.84150   0.84808   0.85313   0.86195
 Alpha virt. eigenvalues --    0.87223   0.87841   0.88166   0.89558   0.90409
 Alpha virt. eigenvalues --    0.91199   0.91719   0.92227   0.92747   0.93427
 Alpha virt. eigenvalues --    0.94877   0.95430   0.96138   0.96939   0.97929
 Alpha virt. eigenvalues --    0.98308   0.99162   0.99471   1.00150   1.00460
 Alpha virt. eigenvalues --    1.00798   1.01663   1.01838   1.02809   1.03677
 Alpha virt. eigenvalues --    1.03755   1.04813   1.06012   1.06180   1.07041
 Alpha virt. eigenvalues --    1.07237   1.08098   1.08599   1.10070   1.11960
 Alpha virt. eigenvalues --    1.12361   1.12781   1.12935   1.13645   1.13831
 Alpha virt. eigenvalues --    1.14133   1.14463   1.14703   1.14928   1.15485
 Alpha virt. eigenvalues --    1.16011   1.16351   1.17168   1.17433   1.17847
 Alpha virt. eigenvalues --    1.18193   1.18762   1.18868   1.19102   1.19480
 Alpha virt. eigenvalues --    1.19922   1.20191   1.20536   1.21027   1.21438
 Alpha virt. eigenvalues --    1.21493   1.22044   1.22336   1.22700   1.22783
 Alpha virt. eigenvalues --    1.23459   1.23820   1.24440   1.25559   1.25860
 Alpha virt. eigenvalues --    1.26390   1.26921   1.27299   1.28671   1.28947
 Alpha virt. eigenvalues --    1.29505   1.30709   1.31114   1.31220   1.31510
 Alpha virt. eigenvalues --    1.32724   1.33673   1.35401   1.36376   1.37855
 Alpha virt. eigenvalues --    1.38438   1.38683   1.41045   1.41624   1.42807
 Alpha virt. eigenvalues --    1.44826   1.46418   1.47348   1.47601   1.49493
 Alpha virt. eigenvalues --    1.49783   1.51227   1.53024   1.54077   1.56255
 Alpha virt. eigenvalues --    1.56717   1.59071   1.59832   1.60438   1.61459
 Alpha virt. eigenvalues --    1.63428   1.64537   1.66654   1.67612   1.69490
 Alpha virt. eigenvalues --    1.70724   1.72211   1.72851   1.72978   1.73928
 Alpha virt. eigenvalues --    1.74755   1.76424   1.76832   1.78272   1.80147
 Alpha virt. eigenvalues --    1.80466   1.82374   1.82897   1.86424   1.89224
 Alpha virt. eigenvalues --    1.89439   1.90226   1.91186   1.93911   1.94445
 Alpha virt. eigenvalues --    1.95791   1.96316   1.98189   2.00207   2.00706
 Alpha virt. eigenvalues --    2.03650   2.04480   2.06257   2.06901   2.08435
 Alpha virt. eigenvalues --    2.09465   2.10322   2.11777   2.11840   2.12156
 Alpha virt. eigenvalues --    2.12670   2.13733   2.14314   2.14725   2.15951
 Alpha virt. eigenvalues --    2.16525   2.17590   2.18615   2.19742   2.19948
 Alpha virt. eigenvalues --    2.20692   2.21053   2.22476   2.22636   2.23584
 Alpha virt. eigenvalues --    2.24259   2.25232   2.25972   2.26597   2.27185
 Alpha virt. eigenvalues --    2.27675   2.28863   2.29799   2.30846   2.31745
 Alpha virt. eigenvalues --    2.32537   2.33761   2.34591   2.35083   2.35912
 Alpha virt. eigenvalues --    2.36648   2.37083   2.37495   2.38759   2.39110
 Alpha virt. eigenvalues --    2.39208   2.39946   2.41668   2.43291   2.44276
 Alpha virt. eigenvalues --    2.44993   2.46692   2.48233   2.48948   2.50743
 Alpha virt. eigenvalues --    2.51421   2.51964   2.53882   2.55139   2.55574
 Alpha virt. eigenvalues --    2.56870   2.57603   2.58717   2.59587   2.60876
 Alpha virt. eigenvalues --    2.62456   2.62930   2.63735   2.64151   2.64598
 Alpha virt. eigenvalues --    2.66354   2.67971   2.69436   2.69873   2.71384
 Alpha virt. eigenvalues --    2.72561   2.73966   2.74615   2.75450   2.75922
 Alpha virt. eigenvalues --    2.77229   2.77757   2.78785   2.79280   2.79917
 Alpha virt. eigenvalues --    2.81249   2.82393   2.84316   2.85538   2.86033
 Alpha virt. eigenvalues --    2.87401   2.89070   2.90410   2.91725   2.95480
 Alpha virt. eigenvalues --    2.96646   2.97891   2.98506   2.99775   3.02251
 Alpha virt. eigenvalues --    3.02553   3.03121   3.04997   3.05742   3.06879
 Alpha virt. eigenvalues --    3.10697   3.11097   3.12793   3.14330   3.15406
 Alpha virt. eigenvalues --    3.16607   3.17945   3.21320   3.29118   3.30276
 Alpha virt. eigenvalues --    3.34077   3.35474   3.40136   3.40599   3.41662
 Alpha virt. eigenvalues --    3.42368   3.43088   3.54819   3.55383   3.57279
 Alpha virt. eigenvalues --    3.60540   4.38115   4.40116   4.48455   4.48860
 Alpha virt. eigenvalues --    4.51592   4.53359   4.55284   4.57453   4.60050
 Alpha virt. eigenvalues --    4.63045   4.66470   4.66865   4.68684   4.69956
 Alpha virt. eigenvalues --    4.70531   4.76117   4.77611   4.83123   4.87215
 Alpha virt. eigenvalues --    4.88985   4.91667   4.93632   4.96853   4.98643
 Alpha virt. eigenvalues --    5.00299   5.02771   5.22806   5.23282
          Condensed to atoms (all electrons):
 Mulliken atomic charges:
              1
     1  C   -0.285143
     2  N   -0.794153
     3  C    0.802847
     4  O   -0.593655
     5  C    0.091840
     6  C   -0.471314
     7  C   -0.337257
     8  C   -0.336788
     9  C   -0.373028
    10  C   -0.179389
    11  C   -0.174229
    12  C   -0.355741
    13  C   -0.310248
    14  C   -0.330068
    15  C    0.090771
    16  C   -0.510122
    17  N   -0.787297
    18  C    0.767277
    19  C   -0.595777
    20  O   -0.613193
    21  C    0.820224
    22  O   -0.640818
    23  N   -0.805751
    24  C   -0.275258
    25  N   -0.803023
    26  C    0.770468
    27  C   -0.588658
    28  O   -0.594228
    29  H    0.166122
    30  H    0.219252
    31  H    0.170027
    32  H    0.385910
    33  H    0.146842
    34  H    0.157386
    35  H    0.225294
    36  H    0.164093
    37  H    0.202832
    38  H    0.180449
    39  H    0.156861
    40  H    0.186651
    41  H    0.178253
    42  H    0.193694
    43  H    0.178148
    44  H    0.173684
    45  H    0.164377
    46  H    0.152285
    47  H    0.196301
    48  H    0.174934
    49  H    0.186517
    50  H    0.184476
    51  H    0.149878
    52  H    0.227319
    53  H    0.389237
    54  H    0.212047
    55  H    0.208730
    56  H    0.176595
    57  H    0.396622
    58  H    0.166779
    59  H    0.196370
    60  H    0.185757
    61  H    0.375112
    62  H    0.217390
    63  H    0.178088
    64  H    0.187398
 Sum of Mulliken atomic charges =   0.00000
 Mulliken charges with hydrogens summed into heavy atoms:
              1
     1  C    0.270259
     2  N   -0.408243
     3  C    0.802847
     4  O   -0.593655
     5  C    0.091840
     6  C    0.058208
     7  C    0.029668
     8  C    0.000522
     9  C   -0.008125
    10  C    0.014305
    11  C    0.003919
    12  C   -0.017680
    13  C    0.038338
    14  C    0.031383
    15  C    0.090771
    16  C    0.051552
    17  N   -0.398060
    18  C    0.767277
    19  C    0.001595
    20  O   -0.613193
    21  C    0.820224
    22  O   -0.640818
    23  N   -0.409129
    24  C    0.273647
    25  N   -0.427910
    26  C    0.770468
    27  C   -0.005782
    28  O   -0.594228
 Sum of Mulliken charges with hydrogens summed into heavy atoms =   0.00000
 Electronic spatial extent (au):  <R**2>=          22022.2442
 Charge=              0.0000 electrons
 Dipole moment (field-independent basis, Debye):
    X=              0.2858    Y=             -5.8033    Z=             -0.8189  Tot=              5.8678
 Quadrupole moment (field-independent basis, Debye-Ang):
   XX=           -217.1227   YY=           -159.6204   ZZ=           -166.5585
   XY=             20.3955   XZ=             11.9534   YZ=              0.8532
 Traceless Quadrupole moment (field-independent basis, Debye-Ang):
   XX=            -36.0222   YY=             21.4801   ZZ=             14.5421
   XY=             20.3955   XZ=             11.9534   YZ=              0.8532
 Octapole moment (field-independent basis, Debye-Ang**2):
  XXX=           -122.9158  YYY=             45.0284  ZZZ=              6.7938  XYY=             50.4128
  XXY=           -291.0170  XXZ=             -6.0978  XZZ=              4.2576  YZZ=              2.6179
  YYZ=             -2.5009  XYZ=             69.6405
 Hexadecapole moment (field-independent basis, Debye-Ang**3):
 XXXX=         -27938.8744 YYYY=          -2252.9725 ZZZZ=          -1311.0592 XXXY=            777.5256
 XXXZ=           -482.5223 YYYX=            119.8666 YYYZ=              2.6840 ZZZX=            -12.3924
 ZZZY=              6.1268 XXYY=          -4378.6300 XXZZ=          -4216.9503 YYZZ=           -612.7570
 XXYZ=             54.5810 YYXZ=             23.5686 ZZXY=             10.4892
 N-N= 2.688017537889D+03 E-N=-8.407844722623D+03  KE= 1.294065646990D+03
 1\1\GINC-MOSURA\SP\RHF\6-31G(d)\C20H36N4O4\MARIE\05-Dec-2019\0\\#SP HF
 /6-31G* Geom=(ModRedundant)\\paramfit run\\0,1\C,0,0.,0.,0.\N,0,1.4481
 87,0.,0.\C,0,2.1232,0.47592,1.072365\O,0,1.590179,0.696732,2.124447\C,
 0,3.650505,0.594143,0.921539\C,0,4.186783,-0.623289,0.161205\C,0,4.015
 151,1.920299,0.200466\C,0,3.490379,2.16362,-1.226083\C,0,2.053787,2.70
 2049,-1.377522\C,0,1.804781,4.00244,-0.650019\C,0,1.814058,5.224529,-1
 .157136\C,0,2.077172,5.622104,-2.589777\C,0,0.811811,5.975933,-3.39179
 4\C,0,0.049693,7.169135,-2.799882\C,0,-1.143723,7.743524,-3.606406\C,0
 ,-1.764609,8.877088,-2.77395\N,0,-0.63849,8.283807,-4.861143\C,0,-1.48
 2485,8.726746,-5.838146\C,0,-0.848503,8.895741,-7.199878\O,0,-2.640929
 ,8.966242,-5.638669\C,0,-2.117249,6.588608,-3.933729\O,0,-1.918586,5.8
 7929,-4.883114\N,0,-3.121281,6.354978,-3.061194\C,0,-4.09873,5.321189,
 -3.333364\N,0,4.289419,0.700166,2.241379\C,0,4.191445,-0.256127,3.2086
 32\C,0,5.192504,-0.132606,4.338562\O,0,3.367081,-1.125365,3.177174\H,0
 ,-0.403259,1.006147,0.\H,0,-0.36496,-0.516002,0.875939\H,0,-0.345658,-
 0.522086,-0.883346\H,0,1.904244,0.070913,-0.879357\H,0,3.709341,-0.724
 406,-0.801477\H,0,5.257625,-0.515736,0.016402\H,0,3.996125,-1.528883,0
 .718408\H,0,5.101564,1.936454,0.148798\H,0,3.728815,2.749608,0.839636\
 H,0,4.159567,2.88861,-1.680172\H,0,3.583739,1.257304,-1.815362\H,0,1.3
 42063,1.962525,-1.034133\H,0,1.86845,2.825457,-2.438773\H,0,1.592393,3
 .905821,0.40244\H,0,1.607954,6.040123,-0.481792\H,0,2.597787,4.827771,
 -3.110796\H,0,2.750107,6.478692,-2.593122\H,0,1.115305,6.180296,-4.414
 78\H,0,0.16549,5.109485,-3.440433\H,0,0.739997,7.994359,-2.638575\H,0,
 -0.330722,6.887729,-1.824975\H,0,-1.041221,9.679323,-2.68614\H,0,-2.00
 2094,8.542414,-1.769473\H,0,-2.653156,9.27442,-3.24123\H,0,0.201517,7.
 86906,-5.194438\H,0,-1.448037,9.574716,-7.786916\H,0,-0.830418,7.92964
 8,-7.695319\H,0,0.168735,9.266145,-7.13348\H,0,-3.391555,7.084838,-2.4
 45104\H,0,-4.737609,5.212997,-2.466733\H,0,-3.595861,4.383618,-3.51966
 9\H,0,-4.708367,5.561109,-4.198543\H,0,5.087288,1.294291,2.285724\H,0,
 4.807669,-0.651649,5.204281\H,0,5.398374,0.90091,4.593539\H,0,6.125117
 ,-0.601065,4.040937\\Version=EM64L-G09RevA.02\State=1-A\HF=-1295.59825
 74\RMSD=5.202e-09\Dipole=1.9952376,0.9430995,-0.6775484\Quadrupole=20.
 4816927,-8.1737543,-12.3079384,4.4126098,-6.9979338,21.6002176\PG=C01 
 [X(C20H36N4O4)]\\@


 LAW OF COMPENSATION:
      NO CALCULATION IS EVER A COMPLETE FAILURE; IT 
      CAN ALWAYS SERVE AS A BAD EXAMPLE.

                                           -- ANON
 Job cpu time:  0 days  0 hours  5 minutes 29.0 seconds.
 File lengths (MBytes):  RWF=    132 Int=      0 D2E=      0 Chk=     10 Scr=      1
 Normal termination of Gaussian 09 at Thu Dec  5 16:10:47 2019.
